Siesta Version  : siesta-4.1-1036
Architecture    : intel-mkl
Compiler version: ifort (IFORT) 2021.5.0 20211109
Compiler flags  : mpiifort  -w -mp1 -xHost -zero -ipo -O3 -DMPI
PP flags        :  -w -mp1 -zero -O3 -DMPI
Libraries       :  -Wl,--start-group /opt/intel/oneapi/mkl/2022.0.2/lib/intel64/libmkl_intel_lpp64.a /opt/intel/oneapi/mkl/2022.0.2/lib/intel64/libmkl_sequential.a /opt/intel/oneapi/mkl/2022.0.2/lib/intel64/libmkl_core.a /opt/intel/oneapi/mkl/2022.0.2/lib/intel64/libmkl_scalapack_lp64.a /opt/intel/oneapi/mkl/2022.0.2/lib/intel64/libmkl_blacs_intelmpi_lp64.a   -Wl,--end-group /opt/intel/oneapi/mpi/2021.5.1/lib/libmpifort.a -lpthread
PARALLEL version

* Running on 2 nodes in parallel
>> Start of run:   6-APR-2022  11:48:33

                           ***********************       
                           *  WELCOME TO SIESTA  *       
                           ***********************       

reinit: Reading from standard input
reinit: Dumped input in INPUT_TMP.14979
************************** Dump of input data file ****************************
SystemName benzene
SystemLabel benzene
NumberOfSpecies 2
NumberOfAtoms   12
%block ChemicalSpeciesLabel
1    1 H
2    6 C
%endblock ChemicalSpeciesLabel
%block PS.Lmax
  C 2
%endblock PS.Lmax
AtomicCoordinatesFormat NotScaledCartesianAng
ZM.ForceTolLength 0.04 eV/Ang
ZM.ForceTolAngle 0.0001 eV/deg
ZM.MaxDisplLength 0.1 Ang
ZM.MaxDisplAngle 20.0 deg
%block Zmatrix
molecule
      2 0 0 0 xm1 ym1 zm1 0 0 0
      2 1 0 0 CC 90.0 60.0 0 0 0
      2 2 1 0 CC CCC 90.0 0 0 0
      2 3 2 1 CC CCC 0.0 0 0 0
      2 4 3 2 CC CCC 0.0 0 0 0
      2 5 4 3 CC CCC 0.0 0 0 0
      1 1 2 3 CH CCH 180.0 0 0 0
      1 2 1 7 CH CCH 0.0 0 0 0
      1 3 2 8 CH CCH 0.0 0 0 0
      1 4 3 9 CH CCH 0.0 0 0 0
      1 5 4 10 CH CCH 0.0 0 0 0
      1 6 5 11 CH CCH 0.0 0 0 0
constants
        ym1 3.68
variables
        zm1 6.9032294
        CC 1.417
        CH 1.112
        CCH 120.0
        CCC 120.0
constraints
        xm1 CC -1.0 3.903229
%endblock Zmatrix
ZM.UnitsLength Ang
ZM.UnitsAngle deg
MD.TypeOfRun CG
MD.NumCGsteps 15
MeshCutoff 420 Ry
PAO.EnergyShift 0.01 Ry
DM.NumberPulay 5
DM.MixingWeight 0.3
************************** End of input data file *****************************

reinit: -----------------------------------------------------------------------
reinit: System Name: benzene
reinit: -----------------------------------------------------------------------
reinit: System Label: benzene
reinit: -----------------------------------------------------------------------

initatom: Reading input for the pseudopotentials and atomic orbitals ----------
Species number:   1 Atomic number:    1 Label: H
Species number:   2 Atomic number:    6 Label: C
 
Ground state valence configuration:   1s01
Reading pseudopotential information in formatted form from H.psf

Valence configuration for pseudopotential generation:
1s( 1.00) rc: 1.25
2p( 0.00) rc: 1.25
3d( 0.00) rc: 1.25
4f( 0.00) rc: 1.25
Ground state valence configuration:   2s02  2p02
Reading pseudopotential information in formatted form from C.psf

Valence configuration for pseudopotential generation:
2s( 2.00) rc: 1.49
2p( 2.00) rc: 1.52
3d( 0.00) rc: 1.58
relmxkb: Read Max KB Ang. Momentum=    2 for species C
For H, standard SIESTA heuristics set lmxkb to 2
 (one more than the basis l, including polarization orbitals).
Use PS.lmax or PS.KBprojectors blocks to override.

<basis_specs>
===============================================================================
H                    Z=   1    Mass=  1.0100        Charge= 0.17977+309
Lmxo=0 Lmxkb= 2    BasisType=split      Semic=F
L=0  Nsemic=0  Cnfigmx=1
          n=1  nzeta=2  polorb=1
            splnorm:   0.15000    
               vcte:    0.0000    
               rinn:    0.0000    
               qcoe:    0.0000    
               qyuk:    0.0000    
               qwid:   0.10000E-01
                rcs:    0.0000      0.0000    
            lambdas:    1.0000      1.0000    
-------------------------------------------------------------------------------
L=0  Nkbl=1  erefs: 0.17977+309
L=1  Nkbl=1  erefs: 0.17977+309
L=2  Nkbl=1  erefs: 0.17977+309
===============================================================================
</basis_specs>

atom: Called for H                     (Z =   1)

read_vps: Pseudopotential generation method:
read_vps: ATM3      Troullier-Martins                       
Total valence charge:    1.00000

xc_check: Exchange-correlation functional:
xc_check: Ceperley-Alder
V l=0 = -2*Zval/r beyond r=  1.2343
V l=1 = -2*Zval/r beyond r=  1.2189
V l=2 = -2*Zval/r beyond r=  1.2189
All V_l potentials equal beyond r=  1.2343
This should be close to max(r_c) in ps generation
All pots = -2*Zval/r beyond r=  1.2343

VLOCAL1: 99.0% of the norm of Vloc inside     28.493 Ry
VLOCAL1: 99.9% of the norm of Vloc inside     64.935 Ry
atom: Maximum radius for 4*pi*r*r*local-pseudopot. charge    1.45251
atom: Maximum radius for r*vlocal+2*Zval:    1.21892
GHOST: No ghost state for L =  0
GHOST: No ghost state for L =  1
GHOST: No ghost state for L =  2

KBgen: Kleinman-Bylander projectors: 
   l= 0   rc=  1.364359   el= -0.467325   Ekb= -2.005361   kbcos= -0.336422
   l= 1   rc=  1.434438   el=  0.001430   Ekb= -0.501708   kbcos= -0.021697
   l= 2   rc=  1.470814   el=  0.002365   Ekb= -0.190555   kbcos= -0.002281

KBgen: Total number of  Kleinman-Bylander projectors:    9
atom: -------------------------------------------------------------------------

atom: SANKEY-TYPE ORBITALS:
atom: Selected multiple-zeta basis: split     

SPLIT: Orbitals with angular momentum L= 0

SPLIT: Basis orbitals for state 1s

SPLIT: PAO cut-off radius determined from an
SPLIT: energy shift=  0.010000 Ry

   izeta = 1
                 lambda =    1.000000
                     rc =    5.336316
                 energy =   -0.457946
                kinetic =    0.886710
    potential(screened) =   -1.344656
       potential(ionic) =   -1.876618

   izeta = 2
                 rmatch =    4.002347
              splitnorm =    0.150000
                 energy =   -0.355904
                kinetic =    1.439488
    potential(screened) =   -1.795392
       potential(ionic) =   -2.364690

POLgen: Perturbative polarization orbital with L=  1

POLgen: Polarization orbital for state 1s

   izeta = 1
                     rc =    5.336316
                 energy =    0.616245
                kinetic =    1.262150
    potential(screened) =   -0.645906
       potential(ionic) =   -1.116519
atom: Total number of Sankey-type orbitals:  5

atm_pop: Valence configuration (for local Pseudopot. screening):
 1s( 1.00)                                                            
Vna: chval, zval:    1.00000   1.00000

Vna:  Cut-off radius for the neutral-atom potential:   5.336316

atom: _________________________________________________________________________

<basis_specs>
===============================================================================
C                    Z=   6    Mass=  12.010        Charge= 0.17977+309
Lmxo=1 Lmxkb= 2    BasisType=split      Semic=F
L=0  Nsemic=0  Cnfigmx=2
          n=1  nzeta=2  polorb=0
            splnorm:   0.15000    
               vcte:    0.0000    
               rinn:    0.0000    
               qcoe:    0.0000    
               qyuk:    0.0000    
               qwid:   0.10000E-01
                rcs:    0.0000      0.0000    
            lambdas:    1.0000      1.0000    
L=1  Nsemic=0  Cnfigmx=2
          n=1  nzeta=2  polorb=1
            splnorm:   0.15000    
               vcte:    0.0000    
               rinn:    0.0000    
               qcoe:    0.0000    
               qyuk:    0.0000    
               qwid:   0.10000E-01
                rcs:    0.0000      0.0000    
            lambdas:    1.0000      1.0000    
-------------------------------------------------------------------------------
L=0  Nkbl=1  erefs: 0.17977+309
L=1  Nkbl=1  erefs: 0.17977+309
L=2  Nkbl=1  erefs: 0.17977+309
===============================================================================
</basis_specs>

atom: Called for C                     (Z =   6)

read_vps: Pseudopotential generation method:
read_vps: ATM3      Troullier-Martins                       
Total valence charge:    4.00000

xc_check: Exchange-correlation functional:
xc_check: Ceperley-Alder
V l=0 = -2*Zval/r beyond r=  1.4666
V l=1 = -2*Zval/r beyond r=  1.5038
V l=2 = -2*Zval/r beyond r=  1.5612
All V_l potentials equal beyond r=  1.5612
This should be close to max(r_c) in ps generation
All pots = -2*Zval/r beyond r=  1.5612

VLOCAL1: 99.0% of the norm of Vloc inside     17.809 Ry
VLOCAL1: 99.9% of the norm of Vloc inside     40.586 Ry
atom: Maximum radius for 4*pi*r*r*local-pseudopot. charge    1.88329
atom: Maximum radius for r*vlocal+2*Zval:    1.62091
GHOST: No ghost state for L =  0
GHOST: No ghost state for L =  1
GHOST: No ghost state for L =  2

KBgen: Kleinman-Bylander projectors: 
   l= 0   rc=  1.747182   el= -1.001947   Ekb=  5.181700   kbcos=  0.300603
   l= 1   rc=  1.747182   el= -0.398598   Ekb= -4.328763   kbcos= -0.367074
   l= 2   rc=  1.955272   el=  0.002326   Ekb= -1.016175   kbcos= -0.009979

KBgen: Total number of  Kleinman-Bylander projectors:    9
atom: -------------------------------------------------------------------------

atom: SANKEY-TYPE ORBITALS:
atom: Selected multiple-zeta basis: split     

SPLIT: Orbitals with angular momentum L= 0

SPLIT: Basis orbitals for state 2s

SPLIT: PAO cut-off radius determined from an
SPLIT: energy shift=  0.010000 Ry

   izeta = 1
                 lambda =    1.000000
                     rc =    4.518360
                 energy =   -0.992087
                kinetic =    0.856755
    potential(screened) =   -1.848843
       potential(ionic) =   -5.436865

   izeta = 2
                 rmatch =    3.475094
              splitnorm =    0.150000
                 energy =   -0.853594
                kinetic =    1.308346
    potential(screened) =   -2.161940
       potential(ionic) =   -6.002045

SPLIT: Orbitals with angular momentum L= 1

SPLIT: Basis orbitals for state 2p

SPLIT: PAO cut-off radius determined from an
SPLIT: energy shift=  0.010000 Ry

   izeta = 1
                 lambda =    1.000000
                     rc =    5.382558
                 energy =   -0.388318
                kinetic =    2.456485
    potential(screened) =   -2.844804
       potential(ionic) =   -6.312273

   izeta = 2
                 rmatch =    3.607901
              splitnorm =    0.150000
                 energy =   -0.242412
                kinetic =    3.681861
    potential(screened) =   -3.924273
       potential(ionic) =   -7.783854

POLgen: Perturbative polarization orbital with L=  2

POLgen: Polarization orbital for state 2p

   izeta = 1
                     rc =    5.382558
                 energy =    1.148490
                kinetic =    2.389078
    potential(screened) =   -1.240587
       potential(ionic) =   -4.090578
atom: Total number of Sankey-type orbitals: 13

atm_pop: Valence configuration (for local Pseudopot. screening):
 2s( 2.00)                                                            
 2p( 2.00)                                                            
Vna: chval, zval:    4.00000   4.00000

Vna:  Cut-off radius for the neutral-atom potential:   5.382558

atom: _________________________________________________________________________

prinput: Basis input ----------------------------------------------------------

PAO.BasisType split     

%block ChemicalSpeciesLabel
    1    1 H                       # Species index, atomic number, species label
    2    6 C                       # Species index, atomic number, species label
%endblock ChemicalSpeciesLabel

%block PAO.Basis                 # Define Basis set
H                     1                    # Species label, number of l-shells
 n=1   0   2 P   1                   # n, l, Nzeta, Polarization, NzetaPol
   5.336      4.002   
   1.000      1.000   
C                     2                    # Species label, number of l-shells
 n=2   0   2                         # n, l, Nzeta 
   4.518      3.475   
   1.000      1.000   
 n=2   1   2 P   1                   # n, l, Nzeta, Polarization, NzetaPol
   5.383      3.608   
   1.000      1.000   
%endblock PAO.Basis

prinput: ----------------------------------------------------------------------

coor:   Atomic-coordinates input format  =     Cartesian coordinates
coor:                                          (in Angstroms)
read_Zmatrix: Length units: Ang       
read_Zmatrix: Angle  units: deg       
read_Zmatrix: Force tolerances:
read_Zmatrix:    for lengths =     0.001556 Ry/Bohr
read_Zmatrix:    for angles  =     0.000421 Ry/rad

read_Zmatrix: Maximum displacements:
read_Zmatrix:    for lengths =     0.188973 Bohr
read_Zmatrix:    for angles  =     0.349066 rad
%block Zmatrix
molecule
      2 0 0 0 xm1 ym1 zm1 0 0 0
      2 1 0 0 CC 90.0 60.0 0 0 0
      2 2 1 0 CC CCC 90.0 0 0 0
      2 3 2 1 CC CCC 0.0 0 0 0
      2 4 3 2 CC CCC 0.0 0 0 0
      2 5 4 3 CC CCC 0.0 0 0 0
      1 1 2 3 CH CCH 180.0 0 0 0
      1 2 1 7 CH CCH 0.0 0 0 0
      1 3 2 8 CH CCH 0.0 0 0 0
      1 4 3 9 CH CCH 0.0 0 0 0
      1 5 4 10 CH CCH 0.0 0 0 0
      1 6 5 11 CH CCH 0.0 0 0 0
constants
        ym1 3.68
variables
        zm1 6.9032294
        CC 1.417
        CH 1.112
        CCH 120.0
        CCC 120.0
constraints
        xm1 CC -1.0 3.903229
%endblock Zmatrix
 nZmol:            1
 nSpecies:            2           2           2           2           2
           2           1           1           1           1           1
           1

zmatrix: Z-matrix coordinates: (Ang ; deg )
zmatrix: (Fractional coordinates have been converted to cartesian)
molecule    1 (    12 atoms)
      2.48622900      3.68000000      6.90322940
      1.41700000     90.00000000     60.00000000
      1.41700000    120.00000000     90.00000000
      1.41700000    120.00000000      0.00000000
      1.41700000    120.00000000      0.00000000
      1.41700000    120.00000000      0.00000000
      1.11200000    120.00000000    180.00000000
      1.11200000    120.00000000      0.00000000
      1.11200000    120.00000000      0.00000000
      1.11200000    120.00000000      0.00000000
      1.11200000    120.00000000      0.00000000
      1.11200000    120.00000000      0.00000000


Z-matrix Symbol Section -------
Variables
 xm1          2.48622900000000     
 zm1          6.90322940000000     
 CCC          120.000000000000     
 CH           1.11200000000000     
 CCH          120.000000000000     
Constants
 ym1          3.68000000000000     
 CC           1.41700000000000     
------------ End of Z-matrix Information


siesta: Atomic coordinates (Bohr) and species
siesta:      4.69829   6.95419  13.04522  2        1
siesta:      6.03717   9.27319  13.04522  2        2
siesta:      8.71491   9.27319  13.04522  2        3
siesta:     10.05378   6.95419  13.04522  2        4
siesta:      8.71491   4.63520  13.04522  2        5
siesta:      6.03717   4.63520  13.04522  2        6
siesta:      2.59692   6.95419  13.04522  1        7
siesta:      4.98648  11.09303  13.04522  1        8
siesta:      9.76560  11.09303  13.04522  1        9
siesta:     12.15516   6.95419  13.04522  1       10
siesta:      9.76560   2.81536  13.04522  1       11
siesta:      4.98648   2.81536  13.04522  1       12

siesta: Automatic unit cell vectors (Ang):
siesta:   11.776283    0.000000    0.000000
siesta:    0.000000   11.030875    0.000000
siesta:    0.000000    0.000000    6.266317

siesta: System type = molecule  

initatomlists: Number of atoms, orbitals, and projectors:     12   108   108

siesta: ******************** Simulation parameters ****************************
siesta:
siesta: The following are some of the parameters of the simulation.
siesta: A complete list of the parameters used, including default values,
siesta: can be found in file out.fdf
siesta:
redata: Spin configuration                          = none
redata: Number of spin components                   = 1
redata: Time-Reversal Symmetry                      = T
redata: Spin-spiral                                 = F
redata: Long output                                 =   F
redata: Number of Atomic Species                    =        2
redata: Charge density info will appear in .RHO file
redata: Write Mulliken Pop.                         = NO
redata: Matel table size (NRTAB)                    =     1024
redata: Mesh Cutoff                                 =   420.0000 Ry
redata: Net charge of the system                    =     0.0000 |e|
redata: Min. number of SCF Iter                     =        0
redata: Max. number of SCF Iter                     =     1000
redata: SCF convergence failure will abort job
redata: SCF mix quantity                            = Hamiltonian
redata: Mix DM or H after convergence               =   F
redata: Recompute H after scf cycle                 =   F
redata: Mix DM in first SCF step                    =   T
redata: Write Pulay info on disk                    =   F
redata: New DM Mixing Weight                        =     0.3000
redata: New DM Occupancy tolerance                  = 0.000000000001
redata: No kicks to SCF
redata: DM Mixing Weight for Kicks                  =     0.5000
redata: Require Harris convergence for SCF          =   F
redata: Harris energy tolerance for SCF             =     0.000100 eV
redata: Require DM convergence for SCF              =   T
redata: DM tolerance for SCF                        =     0.000100
redata: Require EDM convergence for SCF             =   F
redata: EDM tolerance for SCF                       =     0.001000 eV
redata: Require H convergence for SCF               =   T
redata: Hamiltonian tolerance for SCF               =     0.001000 eV
redata: Require (free) Energy convergence for SCF   =   F
redata: (free) Energy tolerance for SCF             =     0.000100 eV
redata: Using Saved Data (generic)                  =   F
redata: Use continuation files for DM               =   F
redata: Neglect nonoverlap interactions             =   F
redata: Method of Calculation                       = Diagonalization
redata: Electronic Temperature                      =   299.9869 K
redata: Fix the spin of the system                  =   F
redata: Dynamics option                             = CG coord. optimization
redata: Variable cell                               =   F
redata: Use continuation files for CG               =   F
redata: Max atomic displ per move                   =     0.1058 Ang
redata: Maximum number of CG moves                  =       15
redata: Force tolerance                             =     0.0400 eV/Ang
mix.SCF: Pulay mixing                            = Pulay
mix.SCF:    Variant                              = stable
mix.SCF:    History steps                        = 5
mix.SCF:    Linear mixing weight                 =     0.300000
mix.SCF:    Mixing weight                        =     0.300000
mix.SCF:    SVD condition                        = 0.1000E-07
redata: ***********************************************************************

%block SCF.Mixers
  Pulay
%endblock SCF.Mixers

%block SCF.Mixer.Pulay
  # Mixing method
  method pulay
  variant stable

  # Mixing options
  weight 0.3000
  weight.linear 0.3000
  history 5
%endblock SCF.Mixer.Pulay
 
DM_history_depth set to one: no extrapolation allowed by default for geometry relaxation
Size of DM history Fstack: 1
Total number of electrons:    30.000000
Total ionic charge:    30.000000

* ProcessorY, Blocksize:    1  24


* Orbital distribution balance (max,min):    60    48

 Kpoints in:            1 . Kpoints trimmed:            1

siesta: k-grid: Number of k-points =     1
siesta: k-grid: Cutoff (effective) =     3.133 Ang
siesta: k-grid: Supercell and displacements
siesta: k-grid:    1   0   0      0.000
siesta: k-grid:    0   1   0      0.000
siesta: k-grid:    0   0   1      0.000
 
diag: Algorithm                                     = D&C
diag: Parallel over k                               =   F
diag: Use parallel 2D distribution                  =   F
diag: Parallel block-size                           = 24
diag: Parallel distribution                         =     1 x     2
diag: Used triangular part                          = Lower
diag: Absolute tolerance                            =  0.100E-15
diag: Orthogonalization factor                      =  0.100E-05
diag: Memory factor                                 =  1.0000
 
 
ts: **************************************************************
ts: Save H and S matrices                           =    F
ts: Save DM and EDM matrices                        =    F
ts: Fix Hartree potential                           =    F
ts: Only save the overlap matrix S                  =    F
ts: **************************************************************
 
************************ Begin: TS CHECKS AND WARNINGS ************************
************************ End: TS CHECKS AND WARNINGS **************************


                     ====================================
                        Begin CG opt. move =      0

zmatrix: Z-matrix coordinates: (Ang ; deg )
zmatrix: (Fractional coordinates have been converted to cartesian)
molecule    1 (    12 atoms)
      2.48622900      3.68000000      6.90322940
      1.41700000     90.00000000     60.00000000
      1.41700000    120.00000000     90.00000000
      1.41700000    120.00000000      0.00000000
      1.41700000    120.00000000      0.00000000
      1.41700000    120.00000000      0.00000000
      1.11200000    120.00000000    180.00000000
      1.11200000    120.00000000      0.00000000
      1.11200000    120.00000000      0.00000000
      1.11200000    120.00000000      0.00000000
      1.11200000    120.00000000      0.00000000
      1.11200000    120.00000000      0.00000000


Z-matrix Symbol Section -------
Variables
 xm1          2.48622900000000     
 zm1          6.90322940000000     
 CCC          120.000000000000     
 CH           1.11200000000000     
 CCH          120.000000000000     
Constants
 ym1          3.68000000000000     
 CC           1.41700000000000     
------------ End of Z-matrix Information

                     ====================================

outcell: Unit cell vectors (Ang):
       11.776283    0.000000    0.000000
        0.000000   11.030875    0.000000
        0.000000    0.000000    6.266317

outcell: Cell vector modules (Ang)   :   11.776283   11.030875    6.266317
outcell: Cell angles (23,13,12) (deg):     90.0000     90.0000     90.0000
outcell: Cell volume (Ang**3)        :    814.0116
<dSpData1D:S at geom step 0
  <sparsity:sparsity for geom step 0
    nrows_g=108 nrows=60 sparsity=.5554 nnzs=6478, refcount: 7>
  <dData1D:(new from dSpData1D) n=6478, refcount: 1>
refcount: 1>
new_DM -- step:     1
Initializing Density Matrix...
DM filled with atomic data:
<dSpData2D:DM initialized from atoms
  <sparsity:sparsity for geom step 0
    nrows_g=108 nrows=60 sparsity=.5554 nnzs=6478, refcount: 8>
  <dData2D:DM n=6478 m=1, refcount: 1>
refcount: 1>
No. of atoms with KB's overlaping orbs in proc 0. Max # of overlaps:      12     101
New grid distribution:   1
           1       1:   75    1:   72    1:   20
           2       1:   75    1:   72   21:   40

InitMesh: MESH =   150 x   144 x    80 =     1728000
InitMesh: (bp) =    75 x    72 x    40 =      216000
InitMesh: Mesh cutoff (required, used) =   420.000   448.402 Ry
ExtMesh (bp) on 0 =   151 x   148 x    96 =     2145408
New grid distribution:   2
           1      26:   75    1:   72    1:   40
           2       1:   25    1:   72    1:   40
New grid distribution:   3
           1      28:   75    1:   72    1:   40
           2       1:   27    1:   72    1:   40
Setting up quadratic distribution...
ExtMesh (bp) on 0 =   126 x   148 x   116 =     2163168
PhiOnMesh: Number of (b)points on node 0 =               144000
PhiOnMesh: nlist on node 0 =              1186395

stepf: Fermi-Dirac step function

siesta: Program's energy decomposition (eV):
siesta: Ebs     =      -283.010442
siesta: Eions   =      1613.953835
siesta: Ena     =       340.735980
siesta: Ekin    =       773.072457
siesta: Enl     =      -128.202050
siesta: Eso     =         0.000000
siesta: Eldau   =         0.000000
siesta: DEna    =       -60.018475
siesta: DUscf   =         8.097923
siesta: DUext   =         0.000000
siesta: Enegf   =         0.000000
siesta: Exc     =      -341.394212
siesta: eta*DQ  =         0.000000
siesta: Emadel  =         0.000000
siesta: Emeta   =         0.000000
siesta: Emolmec =         0.000000
siesta: Ekinion =         0.000000
siesta: Eharris =     -1027.940865
siesta: Etot    =     -1021.662213
siesta: FreeEng =     -1021.662213

        iscf     Eharris(eV)        E_KS(eV)     FreeEng(eV)     dDmax    Ef(eV) dHmax(eV)
   scf:    1    -1027.940865    -1021.662213    -1021.662213  1.950993 -7.498386  6.885383
timer: Routine,Calls,Time,% = IterSCF        1       1.920  42.96
   scf:    2    -1024.898101    -1023.522165    -1023.522165  0.091311 -5.643086  2.829914
   scf:    3    -1024.048901    -1023.869576    -1023.869576  0.068980 -4.438987  0.589826
   scf:    4    -1023.913067    -1023.896633    -1023.896633  0.017287 -4.326661  0.127929
   scf:    5    -1023.893340    -1023.896126    -1023.896126  0.006637 -4.172231  0.167185
   scf:    6    -1023.898343    -1023.897865    -1023.897865  0.003265 -4.252527  0.022417
   scf:    7    -1023.897891    -1023.897893    -1023.897893  0.000587 -4.238443  0.007973
   scf:    8    -1023.897898    -1023.897897    -1023.897897  0.000164 -4.242015  0.000155
   scf:    9    -1023.897897    -1023.897897    -1023.897897  0.000004 -4.242040  0.000105

SCF Convergence by DM+H criterion
max |DM_out - DM_in|         :     0.0000040364
max |H_out - H_in|      (eV) :     0.0001052590
SCF cycle converged after 9 iterations

Using DM_out to compute the final energy and forces
No. of atoms with KB's overlaping orbs in proc 0. Max # of overlaps:      12     101

siesta: E_KS(eV) =            -1023.8979

siesta: E_KS - E_eggbox =     -1023.8979

zmatrix: Atomic forces (eV/Ang ; eV/deg )
zmatrix: (No information if symbols are used)
molecule    1 (    12 atoms)
     1    0.000000    0.000000    0.000000
     2    0.000000    0.000000    0.000000
     3    0.000000    0.000000    0.000000
     4    0.000000    0.000000    0.000000
     5    0.000000    0.000000    0.000000
     6    0.000000    0.000000    0.000000
     7    0.000000    0.000000    0.000000
     8    0.000000    0.000000    0.000000
     9    0.000000    0.000000    0.000000
    10    0.000000    0.000000    0.000000
    11    0.000000    0.000000    0.000000
    12    0.000000    0.000000    0.000000


Variable forces (eV/Ang ; eV/deg )
 xm1          5.58943495435206     
 zm1         2.542659688135698E-004
 CCC        -0.119541928522430     
 CH         -0.942512380560155     
 CCH         6.075541579522372E-007

siesta: Atomic forces (eV/Ang):
----------------------------------------
   Tot    0.004965   -0.000050    0.000254
----------------------------------------
   Max    0.775155
   Res    0.322621    sqrt( Sum f_i^2 / 3N )
----------------------------------------
   Max    0.775155    constrained

Stress-tensor-Voigt (kbar):        8.83        8.83       -0.06        0.00        0.00        0.00
(Free)E + p*V (eV/cell)    -1026.8805
Target enthalpy (eV/cell)    -1023.8979

                     ====================================
                        Begin CG opt. move =      1

zmatrix: Z-matrix coordinates: (Ang ; deg )
zmatrix: (Fractional coordinates have been converted to cartesian)
molecule    1 (    12 atoms)
      2.56599803      3.68000000      6.90323303
      1.33723097     90.00000000     60.00000000
      1.33723097    100.00000000     90.00000000
      1.33723097    100.00000000      0.00000000
      1.33723097    100.00000000      0.00000000
      1.33723097    100.00000000      0.00000000
      1.09854903    120.00010165    180.00000000
      1.09854903    120.00010165      0.00000000
      1.09854903    120.00010165      0.00000000
      1.09854903    120.00010165      0.00000000
      1.09854903    120.00010165      0.00000000
      1.09854903    120.00010165      0.00000000


Z-matrix Symbol Section -------
Variables
 xm1          2.56599802785928     
 zm1          6.90323302872979     
 CCC          99.9999999954336     
 CH           1.09854903457029     
 CCH          120.000101647040     
Constants
 ym1          3.68000000000000     
 CC           1.33723097214072     
------------ End of Z-matrix Information

                     ====================================

outcell: Unit cell vectors (Ang):
       11.776283    0.000000    0.000000
        0.000000   11.030875    0.000000
        0.000000    0.000000    6.266317

outcell: Cell vector modules (Ang)   :   11.776283   11.030875    6.266317
outcell: Cell angles (23,13,12) (deg):     90.0000     90.0000     90.0000
outcell: Cell volume (Ang**3)        :    814.0116
<dSpData1D:S at geom step 1
  <sparsity:sparsity for geom step 1
    nrows_g=108 nrows=60 sparsity=.5556 nnzs=6480, refcount: 7>
  <dData1D:(new from dSpData1D) n=6480, refcount: 1>
refcount: 1>
new_DM -- step:     2
Re-using DM from previous geometries...
Number of DMs in history: 1
 DM extrapolation coefficients: 
1   1.00000
New DM after history re-use:
<dSpData2D:SpM extrapolated using coords
  <sparsity:sparsity for geom step 1
    nrows_g=108 nrows=60 sparsity=.5556 nnzs=6480, refcount: 9>
  <dData2D:(temp array for extrapolation) n=6480 m=1, refcount: 1>
refcount: 1>
Note: For starting DM, Qtot, Tr[D*S] =         30.00000000         25.43043379
No. of atoms with KB's overlaping orbs in proc 0. Max # of overlaps:      12     108
New grid distribution:   1
           1       1:   75    1:   72    1:   20
           2       1:   75    1:   72   21:   40

InitMesh: MESH =   150 x   144 x    80 =     1728000
InitMesh: (bp) =    75 x    72 x    40 =      216000
InitMesh: Mesh cutoff (required, used) =   420.000   448.402 Ry
ExtMesh (bp) on 0 =   151 x   148 x    96 =     2145408
New grid distribution:   2
           1      22:   75    1:   72    1:   40
           2       1:   21    1:   72    1:   40
New grid distribution:   3
           1      26:   75    1:   72    1:   40
           2       1:   25    1:   72    1:   40
Setting up quadratic distribution...
ExtMesh (bp) on 0 =   130 x   148 x   116 =     2231840
PhiOnMesh: Number of (b)points on node 0 =               155520
PhiOnMesh: nlist on node 0 =              1191074

        iscf     Eharris(eV)        E_KS(eV)     FreeEng(eV)     dDmax    Ef(eV) dHmax(eV)
   scf:    1     -534.101537     -777.234571     -777.234576  5.357736 -6.316790 55.552485
   scf:    2     2111.977193       74.923023       74.922805  8.756109  1.970325150.521808
   scf:    3     -926.958449     -863.112583     -863.112583  8.651682 -4.663208 16.252450
   scf:    4     -874.107732     -871.216744     -871.218398  0.770551 -3.493981  3.293638
   scf:    5     -870.612918     -871.362965     -871.363743  0.664459 -3.373390  2.658079
   scf:    6     -871.257665     -871.683580     -871.700778  0.627167 -3.096758  1.426600
   scf:    7     -871.859371     -871.900203     -871.921369  0.341483 -2.988681  0.591041
   scf:    8     -871.782271     -871.877497     -871.924208  0.174883 -2.932833  0.404814
   scf:    9     -871.896366     -871.908540     -871.942827  0.146366 -2.920770  0.222283
   scf:   10     -871.899787     -871.910250     -871.947049  0.084569 -2.911273  0.083168
   scf:   11     -871.911426     -871.913538     -871.947619  0.054315 -2.907597  0.090747
   scf:   12     -871.913890     -871.914306     -871.948949  0.027229 -2.904614  0.015526
   scf:   13     -871.913930     -871.914120     -871.948958  0.001440 -2.907586  0.007364
   scf:   14     -871.914038     -871.914078     -871.948960  0.000719 -2.909748  0.003652
   scf:   15     -871.914078     -871.914078     -871.948960  0.000342 -2.910423  0.001514
   scf:   16     -871.914094     -871.914086     -871.948960  0.000294 -2.910621  0.000528
   scf:   17     -871.914079     -871.914083     -871.948960  0.000105 -2.910652  0.000544
   scf:   18     -871.914094     -871.914089     -871.948960  0.000229 -2.910761  0.000383
   scf:   19     -871.914085     -871.914087     -871.948960  0.000077 -2.910720  0.000054

SCF Convergence by DM+H criterion
max |DM_out - DM_in|         :     0.0000767215
max |H_out - H_in|      (eV) :     0.0000540763
SCF cycle converged after 19 iterations

Using DM_out to compute the final energy and forces
No. of atoms with KB's overlaping orbs in proc 0. Max # of overlaps:      12     108

siesta: E_KS(eV) =             -871.9141

zmatrix: Atomic forces (eV/Ang ; eV/deg )
zmatrix: (No information if symbols are used)
molecule    1 (    12 atoms)
     1    0.000000    0.000000    0.000000
     2    0.000000    0.000000    0.000000
     3    0.000000    0.000000    0.000000
     4    0.000000    0.000000    0.000000
     5    0.000000    0.000000    0.000000
     6    0.000000    0.000000    0.000000
     7    0.000000    0.000000    0.000000
     8    0.000000    0.000000    0.000000
     9    0.000000    0.000000    0.000000
    10    0.000000    0.000000    0.000000
    11    0.000000    0.000000    0.000000
    12    0.000000    0.000000    0.000000


Variable forces (eV/Ang ; eV/deg )
 xm1         -436.111370597643     
 zm1        -7.747235538537569E-004
 CCC          19.6647377209893     
 CH           32.3593080680319     
 CCH         3.851163804774135E-002

siesta: Atomic forces (eV/Ang):
----------------------------------------
   Tot   -0.005031   -0.002991   -0.000775
----------------------------------------
   Max  230.302570
   Res   70.831648    sqrt( Sum f_i^2 / 3N )
----------------------------------------
   Max  230.302570    constrained

Stress-tensor-Voigt (kbar):     -387.01     -830.74       -0.04      -73.66        0.00        0.00
(Free)E + p*V (eV/cell)     -665.7128
Target enthalpy (eV/cell)     -871.9490

                     ====================================
                        Begin CG opt. move =      2

zmatrix: Z-matrix coordinates: (Ang ; deg )
zmatrix: (Fractional coordinates have been converted to cartesian)
molecule    1 (    12 atoms)
      2.48675591      3.68000000      6.90322942
      1.41647309     90.00000000     60.00000000
      1.41647309    119.86789086     90.00000000
      1.41647309    119.86789086      0.00000000
      1.41647309    119.86789086      0.00000000
      1.41647309    119.86789086      0.00000000
      1.11191115    120.00000067    180.00000000
      1.11191115    120.00000067      0.00000000
      1.11191115    120.00000067      0.00000000
      1.11191115    120.00000067      0.00000000
      1.11191115    120.00000067      0.00000000
      1.11191115    120.00000067      0.00000000


Z-matrix Symbol Section -------
Variables
 xm1          2.48675591090201     
 zm1          6.90322942396942     
 CCC          119.867890855317     
 CH           1.11191115022312     
 CCH          120.000000671425     
Constants
 ym1          3.68000000000000     
 CC           1.41647308909799     
------------ End of Z-matrix Information

                     ====================================

outcell: Unit cell vectors (Ang):
       11.776283    0.000000    0.000000
        0.000000   11.030875    0.000000
        0.000000    0.000000    6.266317

outcell: Cell vector modules (Ang)   :   11.776283   11.030875    6.266317
outcell: Cell angles (23,13,12) (deg):     90.0000     90.0000     90.0000
outcell: Cell volume (Ang**3)        :    814.0116
<dSpData1D:S at geom step 2
  <sparsity:sparsity for geom step 2
    nrows_g=108 nrows=60 sparsity=.5554 nnzs=6478, refcount: 7>
  <dData1D:(new from dSpData1D) n=6478, refcount: 1>
refcount: 1>
new_DM -- step:     3
Re-using DM from previous geometries...
Number of DMs in history: 1
 DM extrapolation coefficients: 
1   1.00000
New DM after history re-use:
<dSpData2D:SpM extrapolated using coords
  <sparsity:sparsity for geom step 2
    nrows_g=108 nrows=60 sparsity=.5554 nnzs=6478, refcount: 9>
  <dData2D:(temp array for extrapolation) n=6478 m=1, refcount: 1>
refcount: 1>
Note: For starting DM, Qtot, Tr[D*S] =         30.00000000         31.71847112
No. of atoms with KB's overlaping orbs in proc 0. Max # of overlaps:      12     101
New grid distribution:   1
           1       1:   75    1:   72    1:   20
           2       1:   75    1:   72   21:   40

InitMesh: MESH =   150 x   144 x    80 =     1728000
InitMesh: (bp) =    75 x    72 x    40 =      216000
InitMesh: Mesh cutoff (required, used) =   420.000   448.402 Ry
ExtMesh (bp) on 0 =   151 x   148 x    96 =     2145408
New grid distribution:   2
           1      26:   75    1:   72    1:   40
           2       1:   25    1:   72    1:   40
New grid distribution:   3
           1      28:   75    1:   72    1:   40
           2       1:   27    1:   72    1:   40
Setting up quadratic distribution...
ExtMesh (bp) on 0 =   126 x   148 x   116 =     2163168
PhiOnMesh: Number of (b)points on node 0 =               144000
PhiOnMesh: nlist on node 0 =              1183039

        iscf     Eharris(eV)        E_KS(eV)     FreeEng(eV)     dDmax    Ef(eV) dHmax(eV)
   scf:    1     -467.482868     -824.649773     -824.651571  2.697779 -2.569893 49.418499
   scf:    2     4939.781273      845.527368      845.526522  3.905745 -6.682835152.463397
   scf:    3    -1439.875303    -1021.833402    -1021.833402  3.632101 -5.369443  4.946716
   scf:    4    -1024.432384    -1023.350582    -1023.350582  0.045026 -4.880135  2.198338
   scf:    5    -1024.186604    -1023.845897    -1023.845897  0.031407 -4.414329  0.866716
   scf:    6    -1023.946401    -1023.901028    -1023.901028  0.008381 -4.317493  0.286173
   scf:    7    -1023.915738    -1023.909449    -1023.909449  0.004969 -4.256495  0.070867
   scf:    8    -1023.910615    -1023.910085    -1023.910085  0.002652 -4.235439  0.026728
   scf:    9    -1023.910226    -1023.910166    -1023.910166  0.000606 -4.233031  0.003955
   scf:   10    -1023.910172    -1023.910169    -1023.910169  0.000128 -4.232885  0.002839
   scf:   11    -1023.910172    -1023.910170    -1023.910170  0.000129 -4.232716  0.001120
   scf:   12    -1023.910170    -1023.910170    -1023.910170  0.000045 -4.232658  0.000476

SCF Convergence by DM+H criterion
max |DM_out - DM_in|         :     0.0000453260
max |H_out - H_in|      (eV) :     0.0004759160
SCF cycle converged after 12 iterations

Using DM_out to compute the final energy and forces
No. of atoms with KB's overlaping orbs in proc 0. Max # of overlaps:      12     101

siesta: E_KS(eV) =            -1023.9102

zmatrix: Atomic forces (eV/Ang ; eV/deg )
zmatrix: (No information if symbols are used)
molecule    1 (    12 atoms)
     1    0.000000    0.000000    0.000000
     2    0.000000    0.000000    0.000000
     3    0.000000    0.000000    0.000000
     4    0.000000    0.000000    0.000000
     5    0.000000    0.000000    0.000000
     6    0.000000    0.000000    0.000000
     7    0.000000    0.000000    0.000000
     8    0.000000    0.000000    0.000000
     9    0.000000    0.000000    0.000000
    10    0.000000    0.000000    0.000000
    11    0.000000    0.000000    0.000000
    12    0.000000    0.000000    0.000000


Variable forces (eV/Ang ; eV/deg )
 xm1          4.64712979793664     
 zm1         4.756984652790747E-004
 CCC        -2.341720286862220E-002
 CH         -0.917003388098305     
 CCH        -6.482050098172994E-004

siesta: Atomic forces (eV/Ang):
----------------------------------------
   Tot    0.004223   -0.001132    0.000476
----------------------------------------
   Max    0.758580
   Res    0.299249    sqrt( Sum f_i^2 / 3N )
----------------------------------------
   Max    0.758580    constrained

Stress-tensor-Voigt (kbar):        8.03        6.93       -0.05        0.91        0.00       -0.00
(Free)E + p*V (eV/cell)    -1026.4349
Target enthalpy (eV/cell)    -1023.9102

cgvc_zmatrix: Finished line minimization    1.  Mean atomic displacement =    0.0007

                     ====================================
                        Begin CG opt. move =      3

zmatrix: Z-matrix coordinates: (Ang ; deg )
zmatrix: (Fractional coordinates have been converted to cartesian)
molecule    1 (    12 atoms)
      2.48804832      3.68000000      6.90322957
      1.41518068     90.00000000     60.00000000
      1.41518068    119.84793948     90.00000000
      1.41518068    119.84793948      0.00000000
      1.41518068    119.84793948      0.00000000
      1.41518068    119.84793948      0.00000000
      1.11164768    119.99740576    180.00000000
      1.11164768    119.99740576      0.00000000
      1.11164768    119.99740576      0.00000000
      1.11164768    119.99740576      0.00000000
      1.11164768    119.99740576      0.00000000
      1.11164768    119.99740576      0.00000000


Z-matrix Symbol Section -------
Variables
 xm1          2.48804832477806     
 zm1          6.90322957300192     
 CCC          119.847939483257     
 CH           1.11164767599276     
 CCH          119.997405756947     
Constants
 ym1          3.68000000000000     
 CC           1.41518067522194     
------------ End of Z-matrix Information

                     ====================================

outcell: Unit cell vectors (Ang):
       11.776283    0.000000    0.000000
        0.000000   11.030875    0.000000
        0.000000    0.000000    6.266317

outcell: Cell vector modules (Ang)   :   11.776283   11.030875    6.266317
outcell: Cell angles (23,13,12) (deg):     90.0000     90.0000     90.0000
outcell: Cell volume (Ang**3)        :    814.0116
<dSpData1D:S at geom step 3
  <sparsity:sparsity for geom step 3
    nrows_g=108 nrows=60 sparsity=.5554 nnzs=6478, refcount: 7>
  <dData1D:(new from dSpData1D) n=6478, refcount: 1>
refcount: 1>
new_DM -- step:     4
Re-using DM from previous geometries...
Number of DMs in history: 1
 DM extrapolation coefficients: 
1   1.00000
New DM after history re-use:
<dSpData2D:SpM extrapolated using coords
  <sparsity:sparsity for geom step 3
    nrows_g=108 nrows=60 sparsity=.5554 nnzs=6478, refcount: 9>
  <dData2D:(temp array for extrapolation) n=6478 m=1, refcount: 1>
refcount: 1>
No. of atoms with KB's overlaping orbs in proc 0. Max # of overlaps:      12     101
New grid distribution:   1
           1       1:   75    1:   72    1:   20
           2       1:   75    1:   72   21:   40

InitMesh: MESH =   150 x   144 x    80 =     1728000
InitMesh: (bp) =    75 x    72 x    40 =      216000
InitMesh: Mesh cutoff (required, used) =   420.000   448.402 Ry
ExtMesh (bp) on 0 =   151 x   148 x    96 =     2145408
New grid distribution:   2
           1      26:   75    1:   72    1:   40
           2       1:   25    1:   72    1:   40
New grid distribution:   3
           1      28:   75    1:   72    1:   40
           2       1:   27    1:   72    1:   40
Setting up quadratic distribution...
ExtMesh (bp) on 0 =   126 x   148 x   116 =     2163168
PhiOnMesh: Number of (b)points on node 0 =               144000
PhiOnMesh: nlist on node 0 =              1182380

        iscf     Eharris(eV)        E_KS(eV)     FreeEng(eV)     dDmax    Ef(eV) dHmax(eV)
   scf:    1    -1023.866160    -1023.916199    -1023.916199  0.002531 -4.223875  0.043152
   scf:    2    -1023.914140    -1023.915640    -1023.915640  0.002301 -4.235789  0.109419
   scf:    3    -1023.916497    -1023.916318    -1023.916318  0.001660 -4.227878  0.002697
   scf:    4    -1023.916320    -1023.916319    -1023.916319  0.000088 -4.227885  0.001140
   scf:    5    -1023.916320    -1023.916320    -1023.916320  0.000069 -4.227599  0.000173

SCF Convergence by DM+H criterion
max |DM_out - DM_in|         :     0.0000687966
max |H_out - H_in|      (eV) :     0.0001732630
SCF cycle converged after 5 iterations

Using DM_out to compute the final energy and forces
No. of atoms with KB's overlaping orbs in proc 0. Max # of overlaps:      12     101

siesta: E_KS(eV) =            -1023.9163

zmatrix: Atomic forces (eV/Ang ; eV/deg )
zmatrix: (No information if symbols are used)
molecule    1 (    12 atoms)
     1    0.000000    0.000000    0.000000
     2    0.000000    0.000000    0.000000
     3    0.000000    0.000000    0.000000
     4    0.000000    0.000000    0.000000
     5    0.000000    0.000000    0.000000
     6    0.000000    0.000000    0.000000
     7    0.000000    0.000000    0.000000
     8    0.000000    0.000000    0.000000
     9    0.000000    0.000000    0.000000
    10    0.000000    0.000000    0.000000
    11    0.000000    0.000000    0.000000
    12    0.000000    0.000000    0.000000


Variable forces (eV/Ang ; eV/deg )
 xm1          4.16838949147760     
 zm1         1.028521442978213E-004
 CCC        -5.337713132918706E-004
 CH         -0.860763902640686     
 CCH        -7.297653658012186E-004

siesta: Atomic forces (eV/Ang):
----------------------------------------
   Tot    0.003514   -0.001047    0.000103
----------------------------------------
   Max    0.710526
   Res    0.287928    sqrt( Sum f_i^2 / 3N )
----------------------------------------
   Max    0.710526    constrained

Stress-tensor-Voigt (kbar):        7.39        6.10       -0.05        1.05        0.00       -0.00
(Free)E + p*V (eV/cell)    -1026.1929
Target enthalpy (eV/cell)    -1023.9163

                     ====================================
                        Begin CG opt. move =      4

zmatrix: Z-matrix coordinates: (Ang ; deg )
zmatrix: (Fractional coordinates have been converted to cartesian)
molecule    1 (    12 atoms)
      2.49011619      3.68000000      6.90322981
      1.41311281     90.00000000     60.00000000
      1.41311281    119.81601729     90.00000000
      1.41311281    119.81601729      0.00000000
      1.41311281    119.81601729      0.00000000
      1.41311281    119.81601729      0.00000000
      1.11122612    119.99325389    180.00000000
      1.11122612    119.99325389      0.00000000
      1.11122612    119.99325389      0.00000000
      1.11122612    119.99325389      0.00000000
      1.11122612    119.99325389      0.00000000
      1.11122612    119.99325389      0.00000000


Z-matrix Symbol Section -------
Variables
 xm1          2.49011618697974     
 zm1          6.90322981145392     
 CCC          119.816017287961     
 CH           1.11122611722418     
 CCH          119.993253893781     
Constants
 ym1          3.68000000000000     
 CC           1.41311281302026     
------------ End of Z-matrix Information

                     ====================================

outcell: Unit cell vectors (Ang):
       11.776283    0.000000    0.000000
        0.000000   11.030875    0.000000
        0.000000    0.000000    6.266317

outcell: Cell vector modules (Ang)   :   11.776283   11.030875    6.266317
outcell: Cell angles (23,13,12) (deg):     90.0000     90.0000     90.0000
outcell: Cell volume (Ang**3)        :    814.0116
<dSpData1D:S at geom step 4
  <sparsity:sparsity for geom step 4
    nrows_g=108 nrows=60 sparsity=.5554 nnzs=6478, refcount: 7>
  <dData1D:(new from dSpData1D) n=6478, refcount: 1>
refcount: 1>
new_DM -- step:     5
Re-using DM from previous geometries...
Number of DMs in history: 1
 DM extrapolation coefficients: 
1   1.00000
New DM after history re-use:
<dSpData2D:SpM extrapolated using coords
  <sparsity:sparsity for geom step 4
    nrows_g=108 nrows=60 sparsity=.5554 nnzs=6478, refcount: 9>
  <dData2D:(temp array for extrapolation) n=6478 m=1, refcount: 1>
refcount: 1>
No. of atoms with KB's overlaping orbs in proc 0. Max # of overlaps:      12     101
New grid distribution:   1
           1       1:   75    1:   72    1:   20
           2       1:   75    1:   72   21:   40

InitMesh: MESH =   150 x   144 x    80 =     1728000
InitMesh: (bp) =    75 x    72 x    40 =      216000
InitMesh: Mesh cutoff (required, used) =   420.000   448.402 Ry
ExtMesh (bp) on 0 =   151 x   148 x    96 =     2145408
New grid distribution:   2
           1      26:   75    1:   72    1:   40
           2       1:   25    1:   72    1:   40
New grid distribution:   3
           1      28:   75    1:   72    1:   40
           2       1:   27    1:   72    1:   40
Setting up quadratic distribution...
ExtMesh (bp) on 0 =   126 x   148 x   116 =     2163168
PhiOnMesh: Number of (b)points on node 0 =               144000
PhiOnMesh: nlist on node 0 =              1181607

        iscf     Eharris(eV)        E_KS(eV)     FreeEng(eV)     dDmax    Ef(eV) dHmax(eV)
   scf:    1    -1023.842649    -1023.923576    -1023.923576  0.003995 -4.213565  0.067583
   scf:    2    -1023.918591    -1023.922233    -1023.922233  0.003572 -4.232713  0.170838
   scf:    3    -1023.924301    -1023.923864    -1023.923864  0.002573 -4.219943  0.004274
   scf:    4    -1023.923871    -1023.923868    -1023.923868  0.000141 -4.219947  0.001821
   scf:    5    -1023.923871    -1023.923870    -1023.923870  0.000109 -4.219493  0.000277
   scf:    6    -1023.923870    -1023.923870    -1023.923870  0.000010 -4.219467  0.000155

SCF Convergence by DM+H criterion
max |DM_out - DM_in|         :     0.0000103084
max |H_out - H_in|      (eV) :     0.0001554487
SCF cycle converged after 6 iterations

Using DM_out to compute the final energy and forces
No. of atoms with KB's overlaping orbs in proc 0. Max # of overlaps:      12     101

siesta: E_KS(eV) =            -1023.9239

zmatrix: Atomic forces (eV/Ang ; eV/deg )
zmatrix: (No information if symbols are used)
molecule    1 (    12 atoms)
     1    0.000000    0.000000    0.000000
     2    0.000000    0.000000    0.000000
     3    0.000000    0.000000    0.000000
     4    0.000000    0.000000    0.000000
     5    0.000000    0.000000    0.000000
     6    0.000000    0.000000    0.000000
     7    0.000000    0.000000    0.000000
     8    0.000000    0.000000    0.000000
     9    0.000000    0.000000    0.000000
    10    0.000000    0.000000    0.000000
    11    0.000000    0.000000    0.000000
    12    0.000000    0.000000    0.000000


Variable forces (eV/Ang ; eV/deg )
 xm1          3.39132835252659     
 zm1         5.215100748982471E-005
 CCC         3.701233291228315E-002
 CH         -0.770925256499604     
 CCH        -8.594360601354126E-004

siesta: Atomic forces (eV/Ang):
----------------------------------------
   Tot    0.002974   -0.002047    0.000052
----------------------------------------
   Max    0.762281
   Res    0.280232    sqrt( Sum f_i^2 / 3N )
----------------------------------------
   Max    0.762281    constrained

Stress-tensor-Voigt (kbar):        6.36        4.77       -0.05        1.29        0.00        0.00
(Free)E + p*V (eV/cell)    -1025.7987
Target enthalpy (eV/cell)    -1023.9239

                     ====================================
                        Begin CG opt. move =      5

zmatrix: Z-matrix coordinates: (Ang ; deg )
zmatrix: (Fractional coordinates have been converted to cartesian)
molecule    1 (    12 atoms)
      2.49342477      3.68000000      6.90323019
      1.40980423     90.00000000     60.00000000
      1.40980423    119.76494178     90.00000000
      1.40980423    119.76494178      0.00000000
      1.40980423    119.76494178      0.00000000
      1.40980423    119.76494178      0.00000000
      1.11055162    119.98661091    180.00000000
      1.11055162    119.98661091      0.00000000
      1.11055162    119.98661091      0.00000000
      1.11055162    119.98661091      0.00000000
      1.11055162    119.98661091      0.00000000
      1.11055162    119.98661091      0.00000000


Z-matrix Symbol Section -------
Variables
 xm1          2.49342476650243     
 zm1          6.90323019297712     
 CCC          119.764941775487     
 CH           1.11055162319446     
 CCH          119.986610912715     
Constants
 ym1          3.68000000000000     
 CC           1.40980423349757     
------------ End of Z-matrix Information

                     ====================================

outcell: Unit cell vectors (Ang):
       11.776283    0.000000    0.000000
        0.000000   11.030875    0.000000
        0.000000    0.000000    6.266317

outcell: Cell vector modules (Ang)   :   11.776283   11.030875    6.266317
outcell: Cell angles (23,13,12) (deg):     90.0000     90.0000     90.0000
outcell: Cell volume (Ang**3)        :    814.0116
<dSpData1D:S at geom step 5
  <sparsity:sparsity for geom step 5
    nrows_g=108 nrows=60 sparsity=.5554 nnzs=6478, refcount: 7>
  <dData1D:(new from dSpData1D) n=6478, refcount: 1>
refcount: 1>
new_DM -- step:     6
Re-using DM from previous geometries...
Number of DMs in history: 1
 DM extrapolation coefficients: 
1   1.00000
New DM after history re-use:
<dSpData2D:SpM extrapolated using coords
  <sparsity:sparsity for geom step 5
    nrows_g=108 nrows=60 sparsity=.5554 nnzs=6478, refcount: 9>
  <dData2D:(temp array for extrapolation) n=6478 m=1, refcount: 1>
refcount: 1>
No. of atoms with KB's overlaping orbs in proc 0. Max # of overlaps:      12     101
New grid distribution:   1
           1       1:   75    1:   72    1:   20
           2       1:   75    1:   72   21:   40

InitMesh: MESH =   150 x   144 x    80 =     1728000
InitMesh: (bp) =    75 x    72 x    40 =      216000
InitMesh: Mesh cutoff (required, used) =   420.000   448.402 Ry
ExtMesh (bp) on 0 =   151 x   148 x    96 =     2145408
New grid distribution:   2
           1      26:   75    1:   72    1:   40
           2       1:   25    1:   72    1:   40
New grid distribution:   3
           1      28:   75    1:   72    1:   40
           2       1:   27    1:   72    1:   40
Setting up quadratic distribution...
ExtMesh (bp) on 0 =   126 x   148 x   116 =     2163168
PhiOnMesh: Number of (b)points on node 0 =               144000
PhiOnMesh: nlist on node 0 =              1180373

        iscf     Eharris(eV)        E_KS(eV)     FreeEng(eV)     dDmax    Ef(eV) dHmax(eV)
   scf:    1    -1023.797597    -1023.929239    -1023.929239  0.006368 -4.197689  0.104848
   scf:    2    -1023.917503    -1023.926076    -1023.926076  0.005458 -4.228529  0.263413
   scf:    3    -1023.930971    -1023.929936    -1023.929936  0.003920 -4.207830  0.006812
   scf:    4    -1023.929953    -1023.929946    -1023.929946  0.000227 -4.207810  0.002923
   scf:    5    -1023.929948    -1023.929947    -1023.929947  0.000173 -4.207088  0.000446
   scf:    6    -1023.929947    -1023.929947    -1023.929947  0.000017 -4.207048  0.000249

SCF Convergence by DM+H criterion
max |DM_out - DM_in|         :     0.0000166153
max |H_out - H_in|      (eV) :     0.0002486452
SCF cycle converged after 6 iterations

Using DM_out to compute the final energy and forces
No. of atoms with KB's overlaping orbs in proc 0. Max # of overlaps:      12     101

siesta: E_KS(eV) =            -1023.9299

zmatrix: Atomic forces (eV/Ang ; eV/deg )
zmatrix: (No information if symbols are used)
molecule    1 (    12 atoms)
     1    0.000000    0.000000    0.000000
     2    0.000000    0.000000    0.000000
     3    0.000000    0.000000    0.000000
     4    0.000000    0.000000    0.000000
     5    0.000000    0.000000    0.000000
     6    0.000000    0.000000    0.000000
     7    0.000000    0.000000    0.000000
     8    0.000000    0.000000    0.000000
     9    0.000000    0.000000    0.000000
    10    0.000000    0.000000    0.000000
    11    0.000000    0.000000    0.000000
    12    0.000000    0.000000    0.000000


Variable forces (eV/Ang ; eV/deg )
 xm1          2.12345312570777     
 zm1        -1.353021798108775E-004
 CCC         9.923377120025315E-002
 CH         -0.627166795513380     
 CCH        -1.081896300524326E-003

siesta: Atomic forces (eV/Ang):
----------------------------------------
   Tot    0.002923   -0.002721   -0.000135
----------------------------------------
   Max    1.014063
   Res    0.298683    sqrt( Sum f_i^2 / 3N )
----------------------------------------
   Max    1.014063    constrained

Stress-tensor-Voigt (kbar):        4.69        2.59       -0.05        1.68       -0.00        0.00
(Free)E + p*V (eV/cell)    -1025.1534
Target enthalpy (eV/cell)    -1023.9299

                     ====================================
                        Begin CG opt. move =      6

zmatrix: Z-matrix coordinates: (Ang ; deg )
zmatrix: (Fractional coordinates have been converted to cartesian)
molecule    1 (    12 atoms)
      2.49871849      3.68000000      6.90323080
      1.40451051     90.00000000     60.00000000
      1.40451051    119.68322096     90.00000000
      1.40451051    119.68322096      0.00000000
      1.40451051    119.68322096      0.00000000
      1.40451051    119.68322096      0.00000000
      1.10947243    119.97598214    180.00000000
      1.10947243    119.97598214      0.00000000
      1.10947243    119.97598214      0.00000000
      1.10947243    119.97598214      0.00000000
      1.10947243    119.97598214      0.00000000
      1.10947243    119.97598214      0.00000000


Z-matrix Symbol Section -------
Variables
 xm1          2.49871849373873     
 zm1          6.90323080341425     
 CCC          119.683220955529     
 CH           1.10947243274691     
 CCH          119.975982143010     
Constants
 ym1          3.68000000000000     
 CC           1.40451050626127     
------------ End of Z-matrix Information

                     ====================================

outcell: Unit cell vectors (Ang):
       11.776283    0.000000    0.000000
        0.000000   11.030875    0.000000
        0.000000    0.000000    6.266317

outcell: Cell vector modules (Ang)   :   11.776283   11.030875    6.266317
outcell: Cell angles (23,13,12) (deg):     90.0000     90.0000     90.0000
outcell: Cell volume (Ang**3)        :    814.0116
<dSpData1D:S at geom step 6
  <sparsity:sparsity for geom step 6
    nrows_g=108 nrows=60 sparsity=.5554 nnzs=6478, refcount: 7>
  <dData1D:(new from dSpData1D) n=6478, refcount: 1>
refcount: 1>
new_DM -- step:     7
Re-using DM from previous geometries...
Number of DMs in history: 1
 DM extrapolation coefficients: 
1   1.00000
New DM after history re-use:
<dSpData2D:SpM extrapolated using coords
  <sparsity:sparsity for geom step 6
    nrows_g=108 nrows=60 sparsity=.5554 nnzs=6478, refcount: 9>
  <dData2D:(temp array for extrapolation) n=6478 m=1, refcount: 1>
refcount: 1>
Note: For starting DM, Qtot, Tr[D*S] =         30.00000000         30.04204946
No. of atoms with KB's overlaping orbs in proc 0. Max # of overlaps:      12     101
New grid distribution:   1
           1       1:   75    1:   72    1:   20
           2       1:   75    1:   72   21:   40

InitMesh: MESH =   150 x   144 x    80 =     1728000
InitMesh: (bp) =    75 x    72 x    40 =      216000
InitMesh: Mesh cutoff (required, used) =   420.000   448.402 Ry
ExtMesh (bp) on 0 =   151 x   148 x    96 =     2145408
New grid distribution:   2
           1      26:   75    1:   72    1:   40
           2       1:   25    1:   72    1:   40
New grid distribution:   3
           1      28:   75    1:   72    1:   40
           2       1:   27    1:   72    1:   40
Setting up quadratic distribution...
ExtMesh (bp) on 0 =   126 x   148 x   116 =     2163168
PhiOnMesh: Number of (b)points on node 0 =               144000
PhiOnMesh: nlist on node 0 =              1178542

        iscf     Eharris(eV)        E_KS(eV)     FreeEng(eV)     dDmax    Ef(eV) dHmax(eV)
   scf:    1    -1023.706193    -1023.922123    -1023.922123  0.010101 -4.173853  0.158953
   scf:    2    -1023.896156    -1023.915188    -1023.915188  0.008068 -4.223529  0.395480
   scf:    3    -1023.926062    -1023.923744    -1023.923744  0.005767 -4.189923  0.010809
   scf:    4    -1023.923785    -1023.923767    -1023.923767  0.000368 -4.189831  0.004678
   scf:    5    -1023.923774    -1023.923771    -1023.923771  0.000271 -4.188694  0.000722
   scf:    6    -1023.923771    -1023.923771    -1023.923771  0.000027 -4.188632  0.000395

SCF Convergence by DM+H criterion
max |DM_out - DM_in|         :     0.0000271705
max |H_out - H_in|      (eV) :     0.0003946152
SCF cycle converged after 6 iterations

Using DM_out to compute the final energy and forces
No. of atoms with KB's overlaping orbs in proc 0. Max # of overlaps:      12     101

siesta: E_KS(eV) =            -1023.9238

zmatrix: Atomic forces (eV/Ang ; eV/deg )
zmatrix: (No information if symbols are used)
molecule    1 (    12 atoms)
     1    0.000000    0.000000    0.000000
     2    0.000000    0.000000    0.000000
     3    0.000000    0.000000    0.000000
     4    0.000000    0.000000    0.000000
     5    0.000000    0.000000    0.000000
     6    0.000000    0.000000    0.000000
     7    0.000000    0.000000    0.000000
     8    0.000000    0.000000    0.000000
     9    0.000000    0.000000    0.000000
    10    0.000000    0.000000    0.000000
    11    0.000000    0.000000    0.000000
    12    0.000000    0.000000    0.000000


Variable forces (eV/Ang ; eV/deg )
 xm1         2.406681005234394E-002
 zm1         1.364016253300722E-004
 CCC         0.204544268759975     
 CH         -0.393991038116683     
 CCH        -1.466243631987461E-003

siesta: Atomic forces (eV/Ang):
----------------------------------------
   Tot    0.001354   -0.001571    0.000136
----------------------------------------
   Max    1.456529
   Res    0.397993    sqrt( Sum f_i^2 / 3N )
----------------------------------------
   Max    1.456529    constrained

Stress-tensor-Voigt (kbar):        1.96       -1.02       -0.05        2.35       -0.00        0.00
(Free)E + p*V (eV/cell)    -1024.0742
Target enthalpy (eV/cell)    -1023.9238

                     ====================================
                        Begin CG opt. move =      7

zmatrix: Z-matrix coordinates: (Ang ; deg )
zmatrix: (Fractional coordinates have been converted to cartesian)
molecule    1 (    12 atoms)
      2.49443749      3.68000000      6.90323031
      1.40879151     90.00000000     60.00000000
      1.40879151    119.74930808     90.00000000
      1.40879151    119.74930808      0.00000000
      1.40879151    119.74930808      0.00000000
      1.40879151    119.74930808      0.00000000
      1.11034517    119.98457756    180.00000000
      1.11034517    119.98457756      0.00000000
      1.11034517    119.98457756      0.00000000
      1.11034517    119.98457756      0.00000000
      1.11034517    119.98457756      0.00000000
      1.11034517    119.98457756      0.00000000


Z-matrix Symbol Section -------
Variables
 xm1          2.49443748933210     
 zm1          6.90323030975753     
 CCC          119.749308076141     
 CH           1.11034516737326     
 CCH          119.984577563196     
Constants
 ym1          3.68000000000000     
 CC           1.40879151066790     
------------ End of Z-matrix Information

                     ====================================

outcell: Unit cell vectors (Ang):
       11.776283    0.000000    0.000000
        0.000000   11.030875    0.000000
        0.000000    0.000000    6.266317

outcell: Cell vector modules (Ang)   :   11.776283   11.030875    6.266317
outcell: Cell angles (23,13,12) (deg):     90.0000     90.0000     90.0000
outcell: Cell volume (Ang**3)        :    814.0116
<dSpData1D:S at geom step 7
  <sparsity:sparsity for geom step 7
    nrows_g=108 nrows=60 sparsity=.5554 nnzs=6478, refcount: 7>
  <dData1D:(new from dSpData1D) n=6478, refcount: 1>
refcount: 1>
new_DM -- step:     8
Re-using DM from previous geometries...
Number of DMs in history: 1
 DM extrapolation coefficients: 
1   1.00000
New DM after history re-use:
<dSpData2D:SpM extrapolated using coords
  <sparsity:sparsity for geom step 7
    nrows_g=108 nrows=60 sparsity=.5554 nnzs=6478, refcount: 9>
  <dData2D:(temp array for extrapolation) n=6478 m=1, refcount: 1>
refcount: 1>
Note: For starting DM, Qtot, Tr[D*S] =         30.00000000         29.96605541
No. of atoms with KB's overlaping orbs in proc 0. Max # of overlaps:      12     101
New grid distribution:   1
           1       1:   75    1:   72    1:   20
           2       1:   75    1:   72   21:   40

InitMesh: MESH =   150 x   144 x    80 =     1728000
InitMesh: (bp) =    75 x    72 x    40 =      216000
InitMesh: Mesh cutoff (required, used) =   420.000   448.402 Ry
ExtMesh (bp) on 0 =   151 x   148 x    96 =     2145408
New grid distribution:   2
           1      26:   75    1:   72    1:   40
           2       1:   25    1:   72    1:   40
New grid distribution:   3
           1      28:   75    1:   72    1:   40
           2       1:   27    1:   72    1:   40
Setting up quadratic distribution...
ExtMesh (bp) on 0 =   126 x   148 x   116 =     2163168
PhiOnMesh: Number of (b)points on node 0 =               144000
PhiOnMesh: nlist on node 0 =              1179995

        iscf     Eharris(eV)        E_KS(eV)     FreeEng(eV)     dDmax    Ef(eV) dHmax(eV)
   scf:    1    -1024.099843    -1023.929221    -1023.929221  0.008250 -4.215615  0.128136
   scf:    2    -1023.911899    -1023.924584    -1023.924584  0.006606 -4.177448  0.320453
   scf:    3    -1023.931816    -1023.930283    -1023.930283  0.004742 -4.202389  0.008750
   scf:    4    -1023.930308    -1023.930297    -1023.930297  0.000297 -4.202438  0.003874
   scf:    5    -1023.930300    -1023.930298    -1023.930298  0.000224 -4.203385  0.000598
   scf:    6    -1023.930298    -1023.930298    -1023.930298  0.000023 -4.203433  0.000310

SCF Convergence by DM+H criterion
max |DM_out - DM_in|         :     0.0000227495
max |H_out - H_in|      (eV) :     0.0003104560
SCF cycle converged after 6 iterations

Using DM_out to compute the final energy and forces
No. of atoms with KB's overlaping orbs in proc 0. Max # of overlaps:      12     101

siesta: E_KS(eV) =            -1023.9303

zmatrix: Atomic forces (eV/Ang ; eV/deg )
zmatrix: (No information if symbols are used)
molecule    1 (    12 atoms)
     1    0.000000    0.000000    0.000000
     2    0.000000    0.000000    0.000000
     3    0.000000    0.000000    0.000000
     4    0.000000    0.000000    0.000000
     5    0.000000    0.000000    0.000000
     6    0.000000    0.000000    0.000000
     7    0.000000    0.000000    0.000000
     8    0.000000    0.000000    0.000000
     9    0.000000    0.000000    0.000000
    10    0.000000    0.000000    0.000000
    11    0.000000    0.000000    0.000000
    12    0.000000    0.000000    0.000000


Variable forces (eV/Ang ; eV/deg )
 xm1          1.72552833668155     
 zm1        -7.874237453049204E-005
 CCC         0.118930780660371     
 CH         -0.581354866336436     
 CCH        -1.159274773260605E-003

siesta: Atomic forces (eV/Ang):
----------------------------------------
   Tot    0.002066   -0.002531   -0.000079
----------------------------------------
   Max    1.094853
   Res    0.311748    sqrt( Sum f_i^2 / 3N )
----------------------------------------
   Max    1.094853    constrained

Stress-tensor-Voigt (kbar):        4.17        1.90       -0.05        1.81       -0.00        0.00
(Free)E + p*V (eV/cell)    -1024.9495
Target enthalpy (eV/cell)    -1023.9303

cgvc_zmatrix: Finished line minimization    2.  Mean atomic displacement =    0.0043

                     ====================================
                        Begin CG opt. move =      8

zmatrix: Z-matrix coordinates: (Ang ; deg )
zmatrix: (Fractional coordinates have been converted to cartesian)
molecule    1 (    12 atoms)
      2.50177943      3.68000000      6.90323108
      1.40144957     90.00000000     60.00000000
      1.40144957    120.02145917     90.00000000
      1.40144957    120.02145917      0.00000000
      1.40144957    120.02145917      0.00000000
      1.40144957    120.02145917      0.00000000
      1.10878614    119.96708920    180.00000000
      1.10878614    119.96708920      0.00000000
      1.10878614    119.96708920      0.00000000
      1.10878614    119.96708920      0.00000000
      1.10878614    119.96708920      0.00000000
      1.10878614    119.96708920      0.00000000


Z-matrix Symbol Section -------
Variables
 xm1          2.50177943137025     
 zm1          6.90323108103465     
 CCC          120.021459165357     
 CH           1.10878613602770     
 CCH          119.967089201960     
Constants
 ym1          3.68000000000000     
 CC           1.40144956862975     
------------ End of Z-matrix Information

                     ====================================

outcell: Unit cell vectors (Ang):
       11.776283    0.000000    0.000000
        0.000000   11.030875    0.000000
        0.000000    0.000000    6.266317

outcell: Cell vector modules (Ang)   :   11.776283   11.030875    6.266317
outcell: Cell angles (23,13,12) (deg):     90.0000     90.0000     90.0000
outcell: Cell volume (Ang**3)        :    814.0116
<dSpData1D:S at geom step 8
  <sparsity:sparsity for geom step 8
    nrows_g=108 nrows=60 sparsity=.5554 nnzs=6478, refcount: 7>
  <dData1D:(new from dSpData1D) n=6478, refcount: 1>
refcount: 1>
new_DM -- step:     9
Re-using DM from previous geometries...
Number of DMs in history: 1
 DM extrapolation coefficients: 
1   1.00000
New DM after history re-use:
<dSpData2D:SpM extrapolated using coords
  <sparsity:sparsity for geom step 8
    nrows_g=108 nrows=60 sparsity=.5554 nnzs=6478, refcount: 9>
  <dData2D:(temp array for extrapolation) n=6478 m=1, refcount: 1>
refcount: 1>
No. of atoms with KB's overlaping orbs in proc 0. Max # of overlaps:      12     101
New grid distribution:   1
           1       1:   75    1:   72    1:   20
           2       1:   75    1:   72   21:   40

InitMesh: MESH =   150 x   144 x    80 =     1728000
InitMesh: (bp) =    75 x    72 x    40 =      216000
InitMesh: Mesh cutoff (required, used) =   420.000   448.402 Ry
ExtMesh (bp) on 0 =   151 x   148 x    96 =     2145408
New grid distribution:   2
           1      26:   75    1:   72    1:   40
           2       1:   25    1:   72    1:   40
New grid distribution:   3
           1      28:   75    1:   72    1:   40
           2       1:   27    1:   72    1:   40
Setting up quadratic distribution...
ExtMesh (bp) on 0 =   126 x   148 x   116 =     2163168
PhiOnMesh: Number of (b)points on node 0 =               144000
PhiOnMesh: nlist on node 0 =              1186600

        iscf     Eharris(eV)        E_KS(eV)     FreeEng(eV)     dDmax    Ef(eV) dHmax(eV)
   scf:    1    -1023.842669    -1023.935475    -1023.935475  0.015012 -4.202273  0.488624
   scf:    2    -1023.569199    -1023.833762    -1023.833762  0.029877 -4.205908  1.271495
   scf:    3    -1023.984204    -1023.952335    -1023.952335  0.021704 -4.195456  0.011922
   scf:    4    -1023.952383    -1023.952362    -1023.952362  0.000333 -4.194645  0.003567
   scf:    5    -1023.952372    -1023.952368    -1023.952368  0.000264 -4.194252  0.000621
   scf:    6    -1023.952368    -1023.952368    -1023.952368  0.000040 -4.194230  0.000253

SCF Convergence by DM+H criterion
max |DM_out - DM_in|         :     0.0000399598
max |H_out - H_in|      (eV) :     0.0002531283
SCF cycle converged after 6 iterations

Using DM_out to compute the final energy and forces
No. of atoms with KB's overlaping orbs in proc 0. Max # of overlaps:      12     101

siesta: E_KS(eV) =            -1023.9524

zmatrix: Atomic forces (eV/Ang ; eV/deg )
zmatrix: (No information if symbols are used)
molecule    1 (    12 atoms)
     1    0.000000    0.000000    0.000000
     2    0.000000    0.000000    0.000000
     3    0.000000    0.000000    0.000000
     4    0.000000    0.000000    0.000000
     5    0.000000    0.000000    0.000000
     6    0.000000    0.000000    0.000000
     7    0.000000    0.000000    0.000000
     8    0.000000    0.000000    0.000000
     9    0.000000    0.000000    0.000000
    10    0.000000    0.000000    0.000000
    11    0.000000    0.000000    0.000000
    12    0.000000    0.000000    0.000000


Variable forces (eV/Ang ; eV/deg )
 xm1          1.35693739312858     
 zm1        -2.542373011438861E-004
 CCC        -4.122032266423329E-002
 CH         -0.274026771214388     
 CCH         4.603938791569561E-004

siesta: Atomic forces (eV/Ang):
----------------------------------------
   Tot    0.003516   -0.000693   -0.000254
----------------------------------------
   Max    0.231924
   Res    0.079528    sqrt( Sum f_i^2 / 3N )
----------------------------------------
   Max    0.231924    constrained

Stress-tensor-Voigt (kbar):        2.08        2.26       -0.05       -0.17        0.00        0.00
(Free)E + p*V (eV/cell)    -1024.6790
Target enthalpy (eV/cell)    -1023.9524

                     ====================================
                        Begin CG opt. move =      9

zmatrix: Z-matrix coordinates: (Ang ; deg )
zmatrix: (Fractional coordinates have been converted to cartesian)
molecule    1 (    12 atoms)
      2.50164821      3.68000000      6.90323107
      1.40158079     90.00000000     60.00000000
      1.40158079    120.01659502     90.00000000
      1.40158079    120.01659502      0.00000000
      1.40158079    120.01659502      0.00000000
      1.40158079    120.01659502      0.00000000
      1.10881400    119.96740177    180.00000000
      1.10881400    119.96740177      0.00000000
      1.10881400    119.96740177      0.00000000
      1.10881400    119.96740177      0.00000000
      1.10881400    119.96740177      0.00000000
      1.10881400    119.96740177      0.00000000


Z-matrix Symbol Section -------
Variables
 xm1          2.50164820913092     
 zm1          6.90323106724964     
 CCC          120.016595019716     
 CH           1.10881400053321     
 CCH          119.967401770748     
Constants
 ym1          3.68000000000000     
 CC           1.40158079086908     
------------ End of Z-matrix Information

                     ====================================

outcell: Unit cell vectors (Ang):
       11.776283    0.000000    0.000000
        0.000000   11.030875    0.000000
        0.000000    0.000000    6.266317

outcell: Cell vector modules (Ang)   :   11.776283   11.030875    6.266317
outcell: Cell angles (23,13,12) (deg):     90.0000     90.0000     90.0000
outcell: Cell volume (Ang**3)        :    814.0116
<dSpData1D:S at geom step 9
  <sparsity:sparsity for geom step 9
    nrows_g=108 nrows=60 sparsity=.5554 nnzs=6478, refcount: 7>
  <dData1D:(new from dSpData1D) n=6478, refcount: 1>
refcount: 1>
new_DM -- step:    10
Re-using DM from previous geometries...
Number of DMs in history: 1
 DM extrapolation coefficients: 
1   1.00000
New DM after history re-use:
<dSpData2D:SpM extrapolated using coords
  <sparsity:sparsity for geom step 9
    nrows_g=108 nrows=60 sparsity=.5554 nnzs=6478, refcount: 9>
  <dData2D:(temp array for extrapolation) n=6478 m=1, refcount: 1>
refcount: 1>
No. of atoms with KB's overlaping orbs in proc 0. Max # of overlaps:      12     101
New grid distribution:   1
           1       1:   75    1:   72    1:   20
           2       1:   75    1:   72   21:   40

InitMesh: MESH =   150 x   144 x    80 =     1728000
InitMesh: (bp) =    75 x    72 x    40 =      216000
InitMesh: Mesh cutoff (required, used) =   420.000   448.402 Ry
ExtMesh (bp) on 0 =   151 x   148 x    96 =     2145408
New grid distribution:   2
           1      26:   75    1:   72    1:   40
           2       1:   25    1:   72    1:   40
New grid distribution:   3
           1      28:   75    1:   72    1:   40
           2       1:   27    1:   72    1:   40
Setting up quadratic distribution...
ExtMesh (bp) on 0 =   126 x   148 x   116 =     2163168
PhiOnMesh: Number of (b)points on node 0 =               144000
PhiOnMesh: nlist on node 0 =              1186456

        iscf     Eharris(eV)        E_KS(eV)     FreeEng(eV)     dDmax    Ef(eV) dHmax(eV)
   scf:    1    -1023.953551    -1023.952369    -1023.952369  0.000265 -4.194244  0.008791
   scf:    2    -1023.952254    -1023.952338    -1023.952338  0.000531 -4.194431  0.022854
   scf:    3    -1023.952385    -1023.952375    -1023.952375  0.000385 -4.194320  0.000188
   scf:    4    -1023.952375    -1023.952375    -1023.952375  0.000006 -4.194335  0.000059

SCF Convergence by DM+H criterion
max |DM_out - DM_in|         :     0.0000058804
max |H_out - H_in|      (eV) :     0.0000594292
SCF cycle converged after 4 iterations

Using DM_out to compute the final energy and forces
No. of atoms with KB's overlaping orbs in proc 0. Max # of overlaps:      12     101

siesta: E_KS(eV) =            -1023.9524

zmatrix: Atomic forces (eV/Ang ; eV/deg )
zmatrix: (No information if symbols are used)
molecule    1 (    12 atoms)
     1    0.000000    0.000000    0.000000
     2    0.000000    0.000000    0.000000
     3    0.000000    0.000000    0.000000
     4    0.000000    0.000000    0.000000
     5    0.000000    0.000000    0.000000
     6    0.000000    0.000000    0.000000
     7    0.000000    0.000000    0.000000
     8    0.000000    0.000000    0.000000
     9    0.000000    0.000000    0.000000
    10    0.000000    0.000000    0.000000
    11    0.000000    0.000000    0.000000
    12    0.000000    0.000000    0.000000


Variable forces (eV/Ang ; eV/deg )
 xm1          1.36512348570030     
 zm1        -2.756938372168250E-004
 CCC        -3.860278620463996E-002
 CH         -0.279557214803454     
 CCH         4.329553555151844E-004

siesta: Atomic forces (eV/Ang):
----------------------------------------
   Tot    0.003487   -0.000515   -0.000276
----------------------------------------
   Max    0.214615
   Res    0.078379    sqrt( Sum f_i^2 / 3N )
----------------------------------------
   Max    0.214615    constrained

Stress-tensor-Voigt (kbar):        2.12        2.26       -0.05       -0.13        0.00        0.00
(Free)E + p*V (eV/cell)    -1024.6850
Target enthalpy (eV/cell)    -1023.9524

cgvc_zmatrix: Finished line minimization    3.  Mean atomic displacement =    0.0042

                     ====================================
                        Begin CG opt. move =     10

zmatrix: Z-matrix coordinates: (Ang ; deg )
zmatrix: (Fractional coordinates have been converted to cartesian)
molecule    1 (    12 atoms)
      2.50925233      3.68000000      6.90323161
      1.39397667     90.00000000     60.00000000
      1.39397667    119.99672560     90.00000000
      1.39397667    119.99672560      0.00000000
      1.39397667    119.99672560      0.00000000
      1.39397667    119.99672560      0.00000000
      1.10720549    119.95428281    180.00000000
      1.10720549    119.95428281      0.00000000
      1.10720549    119.95428281      0.00000000
      1.10720549    119.95428281      0.00000000
      1.10720549    119.95428281      0.00000000
      1.10720549    119.95428281      0.00000000


Z-matrix Symbol Section -------
Variables
 xm1          2.50925232514450     
 zm1          6.90323161473243     
 CCC          119.996725604260     
 CH           1.10720548724628     
 CCH          119.954282808720     
Constants
 ym1          3.68000000000000     
 CC           1.39397667485550     
------------ End of Z-matrix Information

                     ====================================

outcell: Unit cell vectors (Ang):
       11.776283    0.000000    0.000000
        0.000000   11.030875    0.000000
        0.000000    0.000000    6.266317

outcell: Cell vector modules (Ang)   :   11.776283   11.030875    6.266317
outcell: Cell angles (23,13,12) (deg):     90.0000     90.0000     90.0000
outcell: Cell volume (Ang**3)        :    814.0116
<dSpData1D:S at geom step 10
  <sparsity:sparsity for geom step 10
    nrows_g=108 nrows=60 sparsity=.5554 nnzs=6478, refcount: 7>
  <dData1D:(new from dSpData1D) n=6478, refcount: 1>
refcount: 1>
new_DM -- step:    11
[...]
----------------------------------------
   Max    0.707572
   Res    0.193687    sqrt( Sum f_i^2 / 3N )
----------------------------------------
   Max    0.707572    constrained

Stress-tensor-Voigt (kbar):        1.13       -0.31       -0.05        1.18       -0.00        0.00
(Free)E + p*V (eV/cell)    -1024.0780
Target enthalpy (eV/cell)    -1023.9477

                     ====================================
                        Begin CG opt. move =     13

zmatrix: Z-matrix coordinates: (Ang ; deg )
zmatrix: (Fractional coordinates have been converted to cartesian)
molecule    1 (    12 atoms)
      2.50595555      3.68000000      6.90323131
      1.39727345     90.00000000     60.00000000
      1.39727345    120.00033025     90.00000000
      1.39727345    120.00033025      0.00000000
      1.39727345    120.00033025      0.00000000
      1.39727345    120.00033025      0.00000000
      1.10788981    119.96081903    180.00000000
      1.10788981    119.96081903      0.00000000
      1.10788981    119.96081903      0.00000000
      1.10788981    119.96081903      0.00000000
      1.10788981    119.96081903      0.00000000
      1.10788981    119.96081903      0.00000000


Z-matrix Symbol Section -------
Variables
 xm1          2.50595554712940     
 zm1          6.90323130889270     
 CCC          120.000330245043     
 CH           1.10788980595935     
 CCH          119.960819028630     
Constants
 ym1          3.68000000000000     
 CC           1.39727345287060     
------------ End of Z-matrix Information

                     ====================================

outcell: Unit cell vectors (Ang):
       11.776283    0.000000    0.000000
        0.000000   11.030875    0.000000
        0.000000    0.000000    6.266317

outcell: Cell vector modules (Ang)   :   11.776283   11.030875    6.266317
outcell: Cell angles (23,13,12) (deg):     90.0000     90.0000     90.0000
outcell: Cell volume (Ang**3)        :    814.0116
<dSpData1D:S at geom step 13
  <sparsity:sparsity for geom step 13
    nrows_g=108 nrows=60 sparsity=.5554 nnzs=6478, refcount: 7>
  <dData1D:(new from dSpData1D) n=6478, refcount: 1>
refcount: 1>
new_DM -- step:    14
Re-using DM from previous geometries...
Number of DMs in history: 1
 DM extrapolation coefficients: 
1   1.00000
New DM after history re-use:
<dSpData2D:SpM extrapolated using coords
  <sparsity:sparsity for geom step 13
    nrows_g=108 nrows=60 sparsity=.5554 nnzs=6478, refcount: 9>
  <dData2D:(temp array for extrapolation) n=6478 m=1, refcount: 1>
refcount: 1>
No. of atoms with KB's overlaping orbs in proc 0. Max # of overlaps:      12     101
New grid distribution:   1
           1       1:   75    1:   72    1:   20
           2       1:   75    1:   72   21:   40

InitMesh: MESH =   150 x   144 x    80 =     1728000
InitMesh: (bp) =    75 x    72 x    40 =      216000
InitMesh: Mesh cutoff (required, used) =   420.000   448.402 Ry
ExtMesh (bp) on 0 =   151 x   148 x    96 =     2145408
New grid distribution:   2
           1      26:   75    1:   72    1:   40
           2       1:   25    1:   72    1:   40
New grid distribution:   3
           1      28:   75    1:   72    1:   40
           2       1:   27    1:   72    1:   40
Setting up quadratic distribution...
ExtMesh (bp) on 0 =   126 x   148 x   116 =     2163168
PhiOnMesh: Number of (b)points on node 0 =               144000
PhiOnMesh: nlist on node 0 =              1186098

        iscf     Eharris(eV)        E_KS(eV)     FreeEng(eV)     dDmax    Ef(eV) dHmax(eV)
   scf:    1    -1023.916108    -1023.949998    -1023.949998  0.009074 -4.182609  0.280388
   scf:    2    -1023.827510    -1023.916048    -1023.916048  0.017121 -4.186432  0.732159
   scf:    3    -1023.966438    -1023.955720    -1023.955720  0.012398 -4.181281  0.007004
   scf:    4    -1023.955737    -1023.955730    -1023.955730  0.000219 -4.181097  0.002103
   scf:    5    -1023.955734    -1023.955732    -1023.955732  0.000174 -4.180960  0.000414
   scf:    6    -1023.955732    -1023.955732    -1023.955732  0.000025 -4.180947  0.000143

SCF Convergence by DM+H criterion
max |DM_out - DM_in|         :     0.0000248855
max |H_out - H_in|      (eV) :     0.0001429163
SCF cycle converged after 6 iterations

Using DM_out to compute the final energy and forces
No. of atoms with KB's overlaping orbs in proc 0. Max # of overlaps:      12     101

siesta: E_KS(eV) =            -1023.9557

zmatrix: Atomic forces (eV/Ang ; eV/deg )
zmatrix: (No information if symbols are used)
molecule    1 (    12 atoms)
     1    0.000000    0.000000    0.000000
     2    0.000000    0.000000    0.000000
     3    0.000000    0.000000    0.000000
     4    0.000000    0.000000    0.000000
     5    0.000000    0.000000    0.000000
     6    0.000000    0.000000    0.000000
     7    0.000000    0.000000    0.000000
     8    0.000000    0.000000    0.000000
     9    0.000000    0.000000    0.000000
    10    0.000000    0.000000    0.000000
    11    0.000000    0.000000    0.000000
    12    0.000000    0.000000    0.000000


Variable forces (eV/Ang ; eV/deg )
 xm1        -5.857819790576977E-003
 zm1        -4.621826439897468E-004
 CCC        -9.432884894004738E-005
 CH         -8.313928901206998E-002
 CCH         4.280843319790433E-004

siesta: Atomic forces (eV/Ang):
----------------------------------------
   Tot    0.003616   -0.000768   -0.000462
----------------------------------------
   Max    0.017372
   Res    0.008688    sqrt( Sum f_i^2 / 3N )
----------------------------------------
   Max    0.017372    constrained

Stress-tensor-Voigt (kbar):        0.08        0.09       -0.05       -0.02       -0.00        0.00
(Free)E + p*V (eV/cell)    -1023.9756
Target enthalpy (eV/cell)    -1023.9557

cgvc_zmatrix: Finished line minimization    5.  Mean atomic displacement =    0.0001

                     ====================================
                        Begin CG opt. move =     14

zmatrix: Z-matrix coordinates: (Ang ; deg )
zmatrix: (Fractional coordinates have been converted to cartesian)
molecule    1 (    12 atoms)
      2.50597698      3.68000000      6.90323072
      1.39725202     90.00000000     60.00000000
      1.39725202    120.00003082     90.00000000
      1.39725202    120.00003082      0.00000000
      1.39725202    120.00003082      0.00000000
      1.39725202    120.00003082      0.00000000
      1.10777811    119.96712466    180.00000000
      1.10777811    119.96712466      0.00000000
      1.10777811    119.96712466      0.00000000
      1.10777811    119.96712466      0.00000000
      1.10777811    119.96712466      0.00000000
      1.10777811    119.96712466      0.00000000


Z-matrix Symbol Section -------
Variables
 xm1          2.50597697995422     
 zm1          6.90323072328298     
 CCC          120.000030823165     
 CH           1.10777811302667     
 CCH          119.967124655830     
Constants
 ym1          3.68000000000000     
 CC           1.39725202004578     
------------ End of Z-matrix Information

                     ====================================

outcell: Unit cell vectors (Ang):
       11.776283    0.000000    0.000000
        0.000000   11.030875    0.000000
        0.000000    0.000000    6.266317

outcell: Cell vector modules (Ang)   :   11.776283   11.030875    6.266317
outcell: Cell angles (23,13,12) (deg):     90.0000     90.0000     90.0000
outcell: Cell volume (Ang**3)        :    814.0116
<dSpData1D:S at geom step 14
  <sparsity:sparsity for geom step 14
    nrows_g=108 nrows=60 sparsity=.5554 nnzs=6478, refcount: 7>
  <dData1D:(new from dSpData1D) n=6478, refcount: 1>
refcount: 1>
new_DM -- step:    15
Re-using DM from previous geometries...
Number of DMs in history: 1
 DM extrapolation coefficients: 
1   1.00000
New DM after history re-use:
<dSpData2D:SpM extrapolated using coords
  <sparsity:sparsity for geom step 14
    nrows_g=108 nrows=60 sparsity=.5554 nnzs=6478, refcount: 9>
  <dData2D:(temp array for extrapolation) n=6478 m=1, refcount: 1>
refcount: 1>
No. of atoms with KB's overlaping orbs in proc 0. Max # of overlaps:      12     101
New grid distribution:   1
           1       1:   75    1:   72    1:   20
           2       1:   75    1:   72   21:   40

InitMesh: MESH =   150 x   144 x    80 =     1728000
InitMesh: (bp) =    75 x    72 x    40 =      216000
InitMesh: Mesh cutoff (required, used) =   420.000   448.402 Ry
ExtMesh (bp) on 0 =   151 x   148 x    96 =     2145408
New grid distribution:   2
           1      26:   75    1:   72    1:   40
           2       1:   25    1:   72    1:   40
New grid distribution:   3
           1      28:   75    1:   72    1:   40
           2       1:   27    1:   72    1:   40
Setting up quadratic distribution...
ExtMesh (bp) on 0 =   126 x   148 x   116 =     2163168
PhiOnMesh: Number of (b)points on node 0 =               144000
PhiOnMesh: nlist on node 0 =              1186070

        iscf     Eharris(eV)        E_KS(eV)     FreeEng(eV)     dDmax    Ef(eV) dHmax(eV)
   scf:    1    -1023.953370    -1023.955741    -1023.955741  0.000118 -4.181295  0.001830
   scf:    2    -1023.955740    -1023.955741    -1023.955741  0.000078 -4.179826  0.003120
   scf:    3    -1023.955742    -1023.955741    -1023.955741  0.000047 -4.180690  0.000089

SCF Convergence by DM+H criterion
max |DM_out - DM_in|         :     0.0000473791
max |H_out - H_in|      (eV) :     0.0000888866
SCF cycle converged after 3 iterations

Using DM_out to compute the final energy and forces
No. of atoms with KB's overlaping orbs in proc 0. Max # of overlaps:      12     101

siesta: E_KS(eV) =            -1023.9557

zmatrix: Atomic forces (eV/Ang ; eV/deg )
zmatrix: (No information if symbols are used)
molecule    1 (    12 atoms)
     1    0.000000    0.000000    0.000000
     2    0.000000    0.000000    0.000000
     3    0.000000    0.000000    0.000000
     4    0.000000    0.000000    0.000000
     5    0.000000    0.000000    0.000000
     6    0.000000    0.000000    0.000000
     7    0.000000    0.000000    0.000000
     8    0.000000    0.000000    0.000000
     9    0.000000    0.000000    0.000000
    10    0.000000    0.000000    0.000000
    11    0.000000    0.000000    0.000000
    12    0.000000    0.000000    0.000000


Variable forces (eV/Ang ; eV/deg )
 xm1        -1.480816354016064E-002
 zm1        -4.386269114912303E-004
 CCC         2.854801437618904E-004
 CH         -6.071639897032748E-002
 CCH         3.595397985966368E-004

siesta: Atomic forces (eV/Ang):
----------------------------------------
   Tot    0.003648   -0.000808   -0.000439
----------------------------------------
   Max    0.014743
   Res    0.006968    sqrt( Sum f_i^2 / 3N )
----------------------------------------
   Max    0.014743    constrained

Stress-tensor-Voigt (kbar):        0.04        0.05       -0.05       -0.02       -0.00        0.00
(Free)E + p*V (eV/cell)    -1023.9631
Target enthalpy (eV/cell)    -1023.9557

                     ====================================
                        Begin CG opt. move =     15

zmatrix: Z-matrix coordinates: (Ang ; deg )
zmatrix: (Fractional coordinates have been converted to cartesian)
molecule    1 (    12 atoms)
      2.50601127      3.68000000      6.90322979
      1.39721773     90.00000000     60.00000000
      1.39721773    119.99955175     90.00000000
      1.39721773    119.99955175      0.00000000
      1.39721773    119.99955175      0.00000000
      1.39721773    119.99955175      0.00000000
      1.10759940    119.97721366    180.00000000
      1.10759940    119.97721366      0.00000000
      1.10759940    119.97721366      0.00000000
      1.10759940    119.97721366      0.00000000
      1.10759940    119.97721366      0.00000000
      1.10759940    119.97721366      0.00000000


Z-matrix Symbol Section -------
Variables
 xm1          2.50601127247395     
 zm1          6.90322978630743     
 CCC          119.999551748162     
 CH           1.10759940433439     
 CCH          119.977213659349     
Constants
 ym1          3.68000000000000     
 CC           1.39721772752605     
------------ End of Z-matrix Information

                     ====================================

outcell: Unit cell vectors (Ang):
       11.776283    0.000000    0.000000
        0.000000   11.030875    0.000000
        0.000000    0.000000    6.266317

outcell: Cell vector modules (Ang)   :   11.776283   11.030875    6.266317
outcell: Cell angles (23,13,12) (deg):     90.0000     90.0000     90.0000
outcell: Cell volume (Ang**3)        :    814.0116
<dSpData1D:S at geom step 15
  <sparsity:sparsity for geom step 15
    nrows_g=108 nrows=60 sparsity=.5554 nnzs=6478, refcount: 7>
  <dData1D:(new from dSpData1D) n=6478, refcount: 1>
refcount: 1>
new_DM -- step:    16
Re-using DM from previous geometries...
Number of DMs in history: 1
 DM extrapolation coefficients: 
1   1.00000
New DM after history re-use:
<dSpData2D:SpM extrapolated using coords
  <sparsity:sparsity for geom step 15
    nrows_g=108 nrows=60 sparsity=.5554 nnzs=6478, refcount: 9>
  <dData2D:(temp array for extrapolation) n=6478 m=1, refcount: 1>
refcount: 1>
No. of atoms with KB's overlaping orbs in proc 0. Max # of overlaps:      12     101
New grid distribution:   1
           1       1:   75    1:   72    1:   20
           2       1:   75    1:   72   21:   40

InitMesh: MESH =   150 x   144 x    80 =     1728000
InitMesh: (bp) =    75 x    72 x    40 =      216000
InitMesh: Mesh cutoff (required, used) =   420.000   448.402 Ry
ExtMesh (bp) on 0 =   151 x   148 x    96 =     2145408
New grid distribution:   2
           1      26:   75    1:   72    1:   40
           2       1:   25    1:   72    1:   40
New grid distribution:   3
           1      28:   75    1:   72    1:   40
           2       1:   27    1:   72    1:   40
Setting up quadratic distribution...
ExtMesh (bp) on 0 =   126 x   148 x   116 =     2163168
PhiOnMesh: Number of (b)points on node 0 =               144000
PhiOnMesh: nlist on node 0 =              1186038

        iscf     Eharris(eV)        E_KS(eV)     FreeEng(eV)     dDmax    Ef(eV) dHmax(eV)
   scf:    1    -1023.951954    -1023.955750    -1023.955750  0.000194 -4.181201  0.002862
   scf:    2    -1023.955747    -1023.955750    -1023.955750  0.000118 -4.178869  0.004756
   scf:    3    -1023.955751    -1023.955751    -1023.955751  0.000072 -4.180240  0.000139

SCF Convergence by DM+H criterion
max |DM_out - DM_in|         :     0.0000722277
max |H_out - H_in|      (eV) :     0.0001393505
SCF cycle converged after 3 iterations

Using DM_out to compute the final energy and forces
No. of atoms with KB's overlaping orbs in proc 0. Max # of overlaps:      12     101

siesta: E_KS(eV) =            -1023.9558

zmatrix: Atomic forces (eV/Ang ; eV/deg )
zmatrix: (No information if symbols are used)
molecule    1 (    12 atoms)
     1    0.000000    0.000000    0.000000
     2    0.000000    0.000000    0.000000
     3    0.000000    0.000000    0.000000
     4    0.000000    0.000000    0.000000
     5    0.000000    0.000000    0.000000
     6    0.000000    0.000000    0.000000
     7    0.000000    0.000000    0.000000
     8    0.000000    0.000000    0.000000
     9    0.000000    0.000000    0.000000
    10    0.000000    0.000000    0.000000
    11    0.000000    0.000000    0.000000
    12    0.000000    0.000000    0.000000


Variable forces (eV/Ang ; eV/deg )
 xm1        -2.826193669170667E-002
 zm1        -4.555631017960834E-004
 CCC         8.970731086325387E-004
 CH         -2.535670276587158E-002
 CCH         2.489481540443917E-004

siesta: Atomic forces (eV/Ang):
----------------------------------------
   Tot    0.003451   -0.000891   -0.000456
----------------------------------------
   Max    0.011600
   Res    0.004421    sqrt( Sum f_i^2 / 3N )
----------------------------------------
   Max    0.011600    constrained

Stress-tensor-Voigt (kbar):       -0.01       -0.01       -0.05       -0.01       -0.00        0.00
(Free)E + p*V (eV/cell)    -1023.9439
Target enthalpy (eV/cell)    -1023.9558

outcoor: Final (unrelaxed) atomic coordinates (Ang):        
    2.50601127    3.68000000    6.90322979   2       1  C
    3.20462014    4.89002605    6.90322979   2       2  C
    4.60183786    4.89001512    6.90322979   2       3  C
    5.30042779    3.67997814    6.90322979   2       4  C
    4.60179053    2.46996849    6.90322979   2       5  C
    3.20457280    2.47001221    6.90322979   2       6  C
    1.39841196    3.68044049    6.90322979   1       7  H
    2.65043900    5.84901495    6.90322979   1       8  H
    5.15526355    5.84944018    6.90322979   1       9  H
    6.40802712    3.68040130    6.90322979   1      10  H
    5.15594916    1.51096658    6.90322979   1      11  H
    2.65112460    1.51060014    6.90322979   1      12  H

zmatrix: Z-matrix coordinates: (Ang ; deg )
zmatrix: (Fractional coordinates have been converted to cartesian)
molecule    1 (    12 atoms)
      2.50606614      3.68000000      6.90322829
      1.39716286     90.00000000     60.00000000
      1.39716286    119.99878523     90.00000000
      1.39716286    119.99878523      0.00000000
      1.39716286    119.99878523      0.00000000
      1.39716286    119.99878523      0.00000000
      1.10731347    119.99335606    180.00000000
      1.10731347    119.99335606      0.00000000
      1.10731347    119.99335606      0.00000000
      1.10731347    119.99335606      0.00000000
      1.10731347    119.99335606      0.00000000
      1.10731347    119.99335606      0.00000000


Z-matrix Symbol Section -------
Variables
 xm1          2.50606614050551     
 zm1          6.90322828714654     
 CCC          119.998785228156     
 CH           1.10731347042674     
 CCH          119.993356064979     
Constants
 ym1          3.68000000000000     
 CC           1.39716285949449     
------------ End of Z-matrix Information


siesta: Program's energy decomposition (eV):
siesta: Ebs     =      -359.804155
siesta: Eions   =      1613.953835
siesta: Ena     =       339.919272
siesta: Ekin    =       737.477813
siesta: Enl     =      -120.898204
siesta: Eso     =         0.000000
siesta: Eldau   =         0.000000
siesta: DEna    =       -35.961021
siesta: DUscf   =         3.958460
siesta: DUext   =         0.000000
siesta: Enegf   =         0.000000
siesta: Exc     =      -334.498235
siesta: eta*DQ  =         0.000000
siesta: Emadel  =         0.000000
siesta: Emeta   =         0.000000
siesta: Emolmec =         0.000000
siesta: Ekinion =         0.000000
siesta: Eharris =     -1023.955751
siesta: Etot    =     -1023.955751
siesta: FreeEng =     -1023.955751

siesta: Final energy (eV):
siesta:  Band Struct. =    -359.804155
siesta:       Kinetic =     737.477813
siesta:       Hartree =    1863.049913
siesta:       Eldau   =       0.000000
siesta:       Eso     =       0.000000
siesta:    Ext. field =       0.000000
siesta:       Enegf   =       0.000000
siesta:   Exch.-corr. =    -334.498235
siesta:  Ion-electron =   -4386.166978
siesta:       Ion-ion =    1096.181736
siesta:       Ekinion =       0.000000
siesta:         Total =   -1023.955751
siesta:         Fermi =      -4.180240

siesta: Stress tensor (static) (eV/Ang**3):
siesta:    -0.000007   -0.000004    0.000000
siesta:    -0.000004   -0.000006   -0.000000
siesta:     0.000000   -0.000000   -0.000031

siesta: Cell volume =        814.011582 Ang**3

siesta: Pressure (static):
siesta:                Solid            Molecule  Units
siesta:           0.00000016          0.00000011  Ry/Bohr**3
siesta:           0.00001458          0.00000991  eV/Ang**3
siesta:           0.02335602          0.01587453  kBar
(Free)E+ p_basis*V_orbitals  =       -1019.952558
(Free)Eharris+ p_basis*V_orbitals  =       -1019.952558

siesta: Electric dipole (a.u.)  =   -0.000028    0.000074    0.000010
siesta: Electric dipole (Debye) =   -0.000071    0.000188    0.000026
>> End of run:   6-APR-2022  11:51:40
Job completed
